
     Program PWSCF v.7.5 starts on 10May2026 at 17:17:10 

     This program is part of the open-source Quantum ESPRESSO suite
     for quantum simulation of materials; please cite
         "P. Giannozzi et al., J. Phys.:Condens. Matter 21 395502 (2009);
         "P. Giannozzi et al., J. Phys.:Condens. Matter 29 465901 (2017);
         "P. Giannozzi et al., J. Chem. Phys. 152 154105 (2020);
          URL http://www.quantum-espresso.org", 
     in publications or presentations arising from this work. More details at
     http://www.quantum-espresso.org/quote

     Parallel version (MPI & OpenMP), running on      16 processor cores
     Number of MPI processes:                 1
     Threads/MPI process:                    16

     MPI processes distributed on     1 nodes
     7011 MiB available memory on the printing compute node when the environment starts

     Reading input from /root/qe_work_expanded/candidate_02_VCSe/01_relax.in
Warning: card &CELL ignored
Warning: card   CELL_DOFREE = '2DXY', ignored

     Current dimensions of program PWSCF are:
     Max number of different atomic species (ntypx) = 10
     Max number of k-points (npk) =  40000
     Max angular momentum in pseudopotentials (lmaxx) =  4
     file V.pbe-spnl-rrkjus_psl.1.0.0.UPF: wavefunction(s)  3P 3D renormalized
     Message from routine setup:
     using ibrav=0 with symmetry is DISCOURAGED, use correct ibrav instead

     Subspace diagonalization in iterative solution of the eigenvalue problem:
     a serial algorithm will be used


     G-vector sticks info
     --------------------
     sticks:   dense  smooth     PW     G-vecs:    dense   smooth      PW
     Sum        1345     673    199               161809    57189    8931

     Using Slab Decomposition



     bravais-lattice index     =            0
     lattice parameter (alat)  =       8.3285  a.u.
     unit-cell volume          =    2043.3213 (a.u.)^3
     number of atoms/cell      =            3
     number of atomic types    =            3
     number of electrons       =        23.00
     number of Kohn-Sham states=           16
     kinetic-energy cutoff     =      35.0000  Ry
     charge density cutoff     =     280.0000  Ry
     scf convergence threshold =      1.0E-07
     mixing beta               =       0.3500
     number of iterations used =            8  plain     mixing
     energy convergence thresh.=      1.0E-04
     force convergence thresh. =      1.0E-03
     Exchange-correlation= PBE
                           (   1   4   3   4   0   0   0)
     nstep                     =           50


     celldm(1)=   8.328510  celldm(2)=   0.000000  celldm(3)=   0.000000
     celldm(4)=   0.000000  celldm(5)=   0.000000  celldm(6)=   0.000000

     crystal axes: (cart. coord. in units of alat)
               a(1) = (   1.000000   0.000000   0.000000 )  
               a(2) = (  -0.500000   0.866025   0.000000 )  
               a(3) = (   0.000000   0.000000   4.084172 )  

     reciprocal axes: (cart. coord. in units 2 pi/alat)
               b(1) = (  1.000000  0.577350 -0.000000 )  
               b(2) = (  0.000000  1.154701  0.000000 )  
               b(3) = (  0.000000 -0.000000  0.244848 )  


     PseudoPot. # 1 for C  read from file:
     ./pseudos/C.pbe-n-rrkjus_psl.1.0.0.UPF
     MD5 check sum: 1fdd950c42eb37d8afe3dd2f8d12311e
     Pseudo is Ultrasoft + core correction, Zval =  4.0
     Generated using &quot;atomic&quot; code by A. Dal Corso  v.6.3MaX
     Using radial grid of 1073 points,  4 beta functions with: 
                l(1) =   0
                l(2) =   0
                l(3) =   1
                l(4) =   1
     Q(r) pseudized with 0 coefficients 


     PseudoPot. # 2 for Se read from file:
     ./pseudos/Se.pbe-n-rrkjus_psl.1.0.0.UPF
     MD5 check sum: 8e2a6847b5cb9faee9497ebb573e71ea
     Pseudo is Ultrasoft + core correction, Zval =  6.0
     Generated using &quot;atomic&quot; code by A. Dal Corso  v.6.3
     Using radial grid of 1211 points,  4 beta functions with: 
                l(1) =   0
                l(2) =   0
                l(3) =   1
                l(4) =   1
     Q(r) pseudized with 0 coefficients 


     PseudoPot. # 3 for V  read from file:
     ./pseudos/V.pbe-spnl-rrkjus_psl.1.0.0.UPF
     MD5 check sum: 79b3eb63147daf0b665d9f1bcc691206
     Pseudo is Ultrasoft + core correction, Zval = 13.0
     Generated using &quot;atomic&quot; code by A. Dal Corso  v.6.2.2
     Using radial grid of 1181 points,  6 beta functions with: 
                l(1) =   0
                l(2) =   0
                l(3) =   1
                l(4) =   1
                l(5) =   2
                l(6) =   2
     Q(r) pseudized with 0 coefficients 


     atomic species   valence    mass     pseudopotential
     C                 4.00    12.01100     C ( 1.00)
     Se                6.00    78.97100     Se( 1.00)
     V                13.00    50.94200     V ( 1.00)

      6 Sym. Ops. (no inversion) found



   Cartesian axes

     site n.     atom                  positions (alat units)
         1        V      tau(   1) = (   0.0000000   0.0000000   0.0000000  )
         2        C      tau(   2) = (   0.5000000   0.2886751   0.3196732  )
         3        Se     tau(   3) = (   0.5000000   0.2886751  -0.3196732  )

     number of k points=     4  Methfessel-Paxton smearing, width (Ry)=  0.0200
                       cart. coord. in units 2pi/alat
        k(    1) = (   0.0000000   0.0000000   0.0000000), wk =   0.1250000
        k(    2) = (   0.0000000   0.2886751   0.0000000), wk =   0.7500000
        k(    3) = (   0.0000000  -0.5773503   0.0000000), wk =   0.3750000
        k(    4) = (   0.2500000   0.4330127   0.0000000), wk =   0.7500000

     Dense  grid:   161809 G-vectors     FFT dimensions: (  45,  45, 192)

     Smooth grid:    57189 G-vectors     FFT dimensions: (  32,  32, 135)

     Estimated max dynamical RAM per process >     615.79 MB
 ----2D----2D----2D----2D----2D----2D----2D----2D----2D----2D----2D----2D
  The code is running with the 2D cutoff
  Please refer to:
  Sohier, T., Calandra, M., & Mauri, F. (2017), 
  Density functional perturbation theory for gated two-dimensional heterostructures:
  Theoretical developments and application to flexural phonons in graphene.
  Physical Review B, 96(7), 75448. https://doi.org/10.1103/PhysRevB.96.075448
 ----2D----2D----2D----2D----2D----2D----2D----2D----2D----2D----2D----2D

     Check: negative core charge=   -0.000005

     Initial potential from superposition of free atoms

     starting charge      22.9990, renormalised to      23.0000

     negative rho (up, down):  2.957E-03 0.000E+00
     Starting wfcs are   18 randomized atomic wfcs

     total cpu time spent up to now is        4.3 secs

     per-process dynamical memory:   120.4 Mb

     Self-consistent Calculation

     iteration #  1     ecut=    35.00 Ry     beta= 0.35
     Davidson diagonalization with overlap
     ethr =  1.00E-02,  avg # of iterations =  1.8

     negative rho (up, down):  2.384E-03 0.000E+00

     total cpu time spent up to now is        9.7 secs

     total energy              =    -177.57109629 Ry
     estimated scf accuracy    <       1.14213683 Ry

     iteration #  2     ecut=    35.00 Ry     beta= 0.35
     Davidson diagonalization with overlap
     ethr =  4.97E-03,  avg # of iterations =  5.5

     negative rho (up, down):  5.996E-03 0.000E+00

     total cpu time spent up to now is       18.8 secs

     total energy              =    -177.40344373 Ry
     estimated scf accuracy    <      18.83828201 Ry

     iteration #  3     ecut=    35.00 Ry     beta= 0.35
     Davidson diagonalization with overlap
     ethr =  4.97E-03,  avg # of iterations =  2.0

     negative rho (up, down):  9.871E-03 0.000E+00

     total cpu time spent up to now is       26.6 secs

     total energy              =    -178.05140684 Ry
     estimated scf accuracy    <       2.51099127 Ry

     iteration #  4     ecut=    35.00 Ry     beta= 0.35
     Davidson diagonalization with overlap
     ethr =  4.97E-03,  avg # of iterations =  2.0

     negative rho (up, down):  9.512E-03 0.000E+00

     total cpu time spent up to now is       32.6 secs

     total energy              =    -178.11581621 Ry
     estimated scf accuracy    <       0.42285409 Ry

     iteration #  5     ecut=    35.00 Ry     beta= 0.35
     Davidson diagonalization with overlap
     ethr =  1.84E-03,  avg # of iterations =  3.5

     negative rho (up, down):  6.500E-03 0.000E+00

     total cpu time spent up to now is       39.3 secs

     total energy              =    -178.14685495 Ry
     estimated scf accuracy    <       0.05169022 Ry

     iteration #  6     ecut=    35.00 Ry     beta= 0.35
     Davidson diagonalization with overlap
     ethr =  2.25E-04,  avg # of iterations =  4.8

     negative rho (up, down):  5.455E-03 0.000E+00

     total cpu time spent up to now is       47.0 secs

     total energy              =    -178.15854679 Ry
     estimated scf accuracy    <       0.03382588 Ry

     iteration #  7     ecut=    35.00 Ry     beta= 0.35
     Davidson diagonalization with overlap
     ethr =  1.47E-04,  avg # of iterations =  2.0

     negative rho (up, down):  6.169E-03 0.000E+00

     total cpu time spent up to now is       52.4 secs

     total energy              =    -178.16247997 Ry
     estimated scf accuracy    <       0.01040812 Ry

     iteration #  8     ecut=    35.00 Ry     beta= 0.35
     Davidson diagonalization with overlap
     ethr =  4.53E-05,  avg # of iterations =  6.5

     negative rho (up, down):  1.123E-02 0.000E+00

     total cpu time spent up to now is       63.2 secs

     total energy              =    -178.16499093 Ry
     estimated scf accuracy    <       0.02569923 Ry

     iteration #  9     ecut=    35.00 Ry     beta= 0.35
     Davidson diagonalization with overlap
     ethr =  4.53E-05,  avg # of iterations =  3.5

     negative rho (up, down):  3.540E-02 0.000E+00

     total cpu time spent up to now is       69.9 secs

     total energy              =    -178.16698454 Ry
     estimated scf accuracy    <       0.01003844 Ry

     iteration # 10     ecut=    35.00 Ry     beta= 0.35
     Davidson diagonalization with overlap
     ethr =  4.36E-05,  avg # of iterations =  4.8

     negative rho (up, down):  5.885E-02 0.000E+00

     total cpu time spent up to now is       77.5 secs

     total energy              =    -178.17621852 Ry
     estimated scf accuracy    <       0.01461577 Ry

     iteration # 11     ecut=    35.00 Ry     beta= 0.35
     Davidson diagonalization with overlap
     ethr =  4.36E-05,  avg # of iterations =  4.5

     negative rho (up, down):  1.025E-01 0.000E+00

     total cpu time spent up to now is       85.5 secs

     total energy              =    -178.18267470 Ry
     estimated scf accuracy    <       0.02316598 Ry

     iteration # 12     ecut=    35.00 Ry     beta= 0.35
     Davidson diagonalization with overlap
     ethr =  4.36E-05,  avg # of iterations =  4.5

     negative rho (up, down):  1.619E-01 0.000E+00

     total cpu time spent up to now is       92.9 secs

     total energy              =    -178.18077661 Ry
     estimated scf accuracy    <       0.02438343 Ry

     iteration # 13     ecut=    35.00 Ry     beta= 0.35
     Davidson diagonalization with overlap
     ethr =  4.36E-05,  avg # of iterations =  2.0

     negative rho (up, down):  2.528E-01 0.000E+00

     total cpu time spent up to now is       98.6 secs

     total energy              =    -178.15967434 Ry
     estimated scf accuracy    <       0.02611805 Ry

     iteration # 14     ecut=    35.00 Ry     beta= 0.35
     Davidson diagonalization with overlap
     ethr =  4.36E-05,  avg # of iterations =  3.8

     negative rho (up, down):  2.922E-01 0.000E+00

     total cpu time spent up to now is      105.8 secs

     total energy              =    -178.15286343 Ry
     estimated scf accuracy    <       0.03445337 Ry

     iteration # 15     ecut=    35.00 Ry     beta= 0.35
     Davidson diagonalization with overlap
     ethr =  4.36E-05,  avg # of iterations =  1.2

     negative rho (up, down):  2.238E-01 0.000E+00

     total cpu time spent up to now is      111.3 secs

     total energy              =    -178.17910028 Ry
     estimated scf accuracy    <       0.03880730 Ry

     iteration # 16     ecut=    35.00 Ry     beta= 0.35
     Davidson diagonalization with overlap
     ethr =  4.36E-05,  avg # of iterations =  4.8

     negative rho (up, down):  2.353E-01 0.000E+00

     total cpu time spent up to now is      119.8 secs

     total energy              =    -178.19527111 Ry
     estimated scf accuracy    <       0.04234527 Ry

     iteration # 17     ecut=    35.00 Ry     beta= 0.35
     Davidson diagonalization with overlap
     ethr =  4.36E-05,  avg # of iterations =  3.2

     negative rho (up, down):  3.571E-01 0.000E+00

     total cpu time spent up to now is      126.1 secs

     total energy              =    -178.16985271 Ry
     estimated scf accuracy    <       0.05576356 Ry

     iteration # 18     ecut=    35.00 Ry     beta= 0.35
     Davidson diagonalization with overlap
     ethr =  4.36E-05,  avg # of iterations =  3.2

     negative rho (up, down):  2.116E-01 0.000E+00

     total cpu time spent up to now is      132.8 secs

     total energy              =    -178.21958540 Ry
     estimated scf accuracy    <       0.07076435 Ry

     iteration # 19     ecut=    35.00 Ry     beta= 0.35
     Davidson diagonalization with overlap
     ethr =  4.36E-05,  avg # of iterations =  9.0

     negative rho (up, down):  2.692E-01 0.000E+00

     total cpu time spent up to now is      144.0 secs

     total energy              =    -178.24807688 Ry
     estimated scf accuracy    <       0.03483402 Ry

     iteration # 20     ecut=    35.00 Ry     beta= 0.35
     Davidson diagonalization with overlap
     ethr =  4.36E-05,  avg # of iterations =  5.5

     negative rho (up, down):  3.278E-01 0.000E+00

     total cpu time spent up to now is      153.1 secs

     total energy              =    -178.27222178 Ry
     estimated scf accuracy    <       0.04161628 Ry

     iteration # 21     ecut=    35.00 Ry     beta= 0.35
     Davidson diagonalization with overlap
     ethr =  4.36E-05,  avg # of iterations =  3.5

     negative rho (up, down):  4.170E-01 0.000E+00

     total cpu time spent up to now is      159.5 secs

     total energy              =    -178.29005041 Ry
     estimated scf accuracy    <       0.04808449 Ry

     iteration # 22     ecut=    35.00 Ry     beta= 0.35
     Davidson diagonalization with overlap
     ethr =  4.36E-05,  avg # of iterations =  2.8

     negative rho (up, down):  4.953E-01 0.000E+00

     total cpu time spent up to now is      165.7 secs

     total energy              =    -178.29295300 Ry
     estimated scf accuracy    <       0.06570952 Ry

     iteration # 23     ecut=    35.00 Ry     beta= 0.35
     Davidson diagonalization with overlap
     ethr =  4.36E-05,  avg # of iterations =  1.2

     negative rho (up, down):  5.341E-01 0.000E+00

     total cpu time spent up to now is      171.1 secs

     total energy              =    -178.29875021 Ry
     estimated scf accuracy    <       0.05863746 Ry

     iteration # 24     ecut=    35.00 Ry     beta= 0.35
     Davidson diagonalization with overlap
     ethr =  4.36E-05,  avg # of iterations =  4.0

     negative rho (up, down):  5.762E-01 0.000E+00

     total cpu time spent up to now is      177.6 secs

     total energy              =    -178.30181610 Ry
     estimated scf accuracy    <       0.06012128 Ry

     iteration # 25     ecut=    35.00 Ry     beta= 0.35
     Davidson diagonalization with overlap
     ethr =  4.36E-05,  avg # of iterations =  1.2

     negative rho (up, down):  5.954E-01 0.000E+00

     total cpu time spent up to now is      184.0 secs

     total energy              =    -178.30716245 Ry
     estimated scf accuracy    <       0.06220681 Ry

     iteration # 26     ecut=    35.00 Ry     beta= 0.35
     Davidson diagonalization with overlap
     ethr =  4.36E-05,  avg # of iterations =  1.2

     negative rho (up, down):  5.968E-01 0.000E+00

     total cpu time spent up to now is      188.6 secs

     total energy              =    -178.29872333 Ry
     estimated scf accuracy    <       0.07665723 Ry

     iteration # 27     ecut=    35.00 Ry     beta= 0.35
     Davidson diagonalization with overlap
     ethr =  4.36E-05,  avg # of iterations =  2.0

     negative rho (up, down):  7.532E-01 0.000E+00

     total cpu time spent up to now is      194.5 secs

     total energy              =    -178.26467223 Ry
     estimated scf accuracy    <       0.04552462 Ry

     iteration # 28     ecut=    35.00 Ry     beta= 0.35
     Davidson diagonalization with overlap
     ethr =  4.36E-05,  avg # of iterations =  5.2

     negative rho (up, down):  6.993E-01 0.000E+00

     total cpu time spent up to now is      202.7 secs

     total energy              =    -178.27410166 Ry
     estimated scf accuracy    <       0.09376255 Ry

     iteration # 29     ecut=    35.00 Ry     beta= 0.35
     Davidson diagonalization with overlap
     ethr =  4.36E-05,  avg # of iterations =  3.5

     negative rho (up, down):  6.523E-01 0.000E+00

     total cpu time spent up to now is      209.3 secs

     total energy              =    -178.28302407 Ry
     estimated scf accuracy    <       0.05296120 Ry

     iteration # 30     ecut=    35.00 Ry     beta= 0.35
     Davidson diagonalization with overlap
     ethr =  4.36E-05,  avg # of iterations =  3.2

     negative rho (up, down):  5.829E-01 0.000E+00

     total cpu time spent up to now is      215.8 secs

     total energy              =    -178.29499814 Ry
     estimated scf accuracy    <       0.03534299 Ry

     iteration # 31     ecut=    35.00 Ry     beta= 0.35
     Davidson diagonalization with overlap
     ethr =  4.36E-05,  avg # of iterations =  4.0

     negative rho (up, down):  5.966E-01 0.000E+00

     total cpu time spent up to now is      222.7 secs

     total energy              =    -178.29667921 Ry
     estimated scf accuracy    <       0.01326296 Ry

     iteration # 32     ecut=    35.00 Ry     beta= 0.35
     Davidson diagonalization with overlap
     ethr =  4.36E-05,  avg # of iterations =  4.2

     negative rho (up, down):  6.092E-01 0.000E+00

     total cpu time spent up to now is      230.1 secs

     total energy              =    -178.29481108 Ry
     estimated scf accuracy    <       0.01502562 Ry

     iteration # 33     ecut=    35.00 Ry     beta= 0.35
     Davidson diagonalization with overlap
     ethr =  4.36E-05,  avg # of iterations =  2.0

     negative rho (up, down):  6.196E-01 0.000E+00

     total cpu time spent up to now is      235.4 secs

     total energy              =    -178.29849086 Ry
     estimated scf accuracy    <       0.00121670 Ry

     iteration # 34     ecut=    35.00 Ry     beta= 0.35
     Davidson diagonalization with overlap
     ethr =  5.29E-06,  avg # of iterations =  6.2

     negative rho (up, down):  6.379E-01 0.000E+00

     total cpu time spent up to now is      245.6 secs

     total energy              =    -178.29877758 Ry
     estimated scf accuracy    <       0.00160198 Ry

     iteration # 35     ecut=    35.00 Ry     beta= 0.35
     Davidson diagonalization with overlap
     ethr =  5.29E-06,  avg # of iterations =  2.8

     negative rho (up, down):  6.499E-01 0.000E+00

     total cpu time spent up to now is      251.3 secs

     total energy              =    -178.29901867 Ry
     estimated scf accuracy    <       0.00054776 Ry

     iteration # 36     ecut=    35.00 Ry     beta= 0.35
     Davidson diagonalization with overlap
     ethr =  2.38E-06,  avg # of iterations =  3.8

     negative rho (up, down):  6.608E-01 0.000E+00

     total cpu time spent up to now is      258.1 secs

     total energy              =    -178.29937102 Ry
     estimated scf accuracy    <       0.00007216 Ry

     iteration # 37     ecut=    35.00 Ry     beta= 0.35
     Davidson diagonalization with overlap
     ethr =  3.14E-07,  avg # of iterations =  5.5

     negative rho (up, down):  6.720E-01 0.000E+00

     total cpu time spent up to now is      266.8 secs

     total energy              =    -178.29977331 Ry
     estimated scf accuracy    <       0.00001665 Ry

     iteration # 38     ecut=    35.00 Ry     beta= 0.35
     Davidson diagonalization with overlap
     ethr =  7.24E-08,  avg # of iterations =  5.0

     negative rho (up, down):  6.821E-01 0.000E+00

     total cpu time spent up to now is      275.9 secs

     total energy              =    -178.29990795 Ry
     estimated scf accuracy    <       0.00005009 Ry

     iteration # 39     ecut=    35.00 Ry     beta= 0.35
     Davidson diagonalization with overlap
     ethr =  7.24E-08,  avg # of iterations =  5.2

     negative rho (up, down):  6.914E-01 0.000E+00

     total cpu time spent up to now is      284.6 secs

     total energy              =    -178.29921934 Ry
     estimated scf accuracy    <       0.00016893 Ry

     iteration # 40     ecut=    35.00 Ry     beta= 0.35
     Davidson diagonalization with overlap
     ethr =  7.24E-08,  avg # of iterations =  5.8

     negative rho (up, down):  6.908E-01 0.000E+00

     total cpu time spent up to now is      293.6 secs

     total energy              =    -178.29955792 Ry
     estimated scf accuracy    <       0.00009584 Ry

     iteration # 41     ecut=    35.00 Ry     beta= 0.35
     Davidson diagonalization with overlap
     ethr =  7.24E-08,  avg # of iterations =  2.0

     negative rho (up, down):  6.907E-01 0.000E+00

     total cpu time spent up to now is      299.0 secs

     total energy              =    -178.29955969 Ry
     estimated scf accuracy    <       0.00005997 Ry

     iteration # 42     ecut=    35.00 Ry     beta= 0.35
     Davidson diagonalization with overlap
     ethr =  7.24E-08,  avg # of iterations =  1.0

     negative rho (up, down):  6.902E-01 0.000E+00

     total cpu time spent up to now is      303.5 secs

     total energy              =    -178.29955691 Ry
     estimated scf accuracy    <       0.00004562 Ry

     iteration # 43     ecut=    35.00 Ry     beta= 0.35
     Davidson diagonalization with overlap
     ethr =  7.24E-08,  avg # of iterations =  2.2

     negative rho (up, down):  6.899E-01 0.000E+00

     total cpu time spent up to now is      310.4 secs

     total energy              =    -178.29956172 Ry
     estimated scf accuracy    <       0.00001313 Ry

     iteration # 44     ecut=    35.00 Ry     beta= 0.35
     Davidson diagonalization with overlap
     ethr =  5.71E-08,  avg # of iterations =  3.0

     negative rho (up, down):  6.904E-01 0.000E+00

     total cpu time spent up to now is      316.9 secs

     total energy              =    -178.29956017 Ry
     estimated scf accuracy    <       0.00001266 Ry

     iteration # 45     ecut=    35.00 Ry     beta= 0.35
     Davidson diagonalization with overlap
     ethr =  5.50E-08,  avg # of iterations =  1.0

     negative rho (up, down):  6.906E-01 0.000E+00

     total cpu time spent up to now is      323.1 secs

     total energy              =    -178.29955719 Ry
     estimated scf accuracy    <       0.00001092 Ry

     iteration # 46     ecut=    35.00 Ry     beta= 0.35
     Davidson diagonalization with overlap
     ethr =  4.75E-08,  avg # of iterations =  1.0

     negative rho (up, down):  6.909E-01 0.000E+00

     total cpu time spent up to now is      327.3 secs

     total energy              =    -178.29955456 Ry
     estimated scf accuracy    <       0.00001300 Ry

     iteration # 47     ecut=    35.00 Ry     beta= 0.35
     Davidson diagonalization with overlap
     ethr =  4.75E-08,  avg # of iterations =  1.2

     negative rho (up, down):  6.911E-01 0.000E+00

     total cpu time spent up to now is      332.3 secs

     total energy              =    -178.29955527 Ry
     estimated scf accuracy    <       0.00000852 Ry

     iteration # 48     ecut=    35.00 Ry     beta= 0.35
     Davidson diagonalization with overlap
     ethr =  3.70E-08,  avg # of iterations =  1.5

     negative rho (up, down):  6.912E-01 0.000E+00

     total cpu time spent up to now is      337.2 secs

     total energy              =    -178.29955318 Ry
     estimated scf accuracy    <       0.00000288 Ry

     iteration # 49     ecut=    35.00 Ry     beta= 0.35
     Davidson diagonalization with overlap
     ethr =  1.25E-08,  avg # of iterations =  2.0

     negative rho (up, down):  6.909E-01 0.000E+00

     total cpu time spent up to now is      342.8 secs

     total energy              =    -178.29955397 Ry
     estimated scf accuracy    <       0.00000051 Ry

     iteration # 50     ecut=    35.00 Ry     beta= 0.35
     Davidson diagonalization with overlap
     ethr =  2.22E-09,  avg # of iterations =  5.2

     negative rho (up, down):  6.908E-01 0.000E+00

     total cpu time spent up to now is      350.7 secs

     total energy              =    -178.29955632 Ry
     estimated scf accuracy    <       0.00000035 Ry

     iteration # 51     ecut=    35.00 Ry     beta= 0.35
     Davidson diagonalization with overlap
     ethr =  1.52E-09,  avg # of iterations =  2.8

     negative rho (up, down):  6.907E-01 0.000E+00

     total cpu time spent up to now is      356.4 secs

     End of self-consistent calculation

          k = 0.0000 0.0000 0.0000 (  7151 PWs)   bands (ev):

   -70.5515 -44.8048 -44.8048 -43.5099 -18.5174 -14.7002  -9.7721  -8.0885
    -8.0885  -7.1902  -6.4662  -6.4662  -5.3943  -5.0358  -5.0358  -4.5938

          k = 0.0000 0.2887 0.0000 (  7108 PWs)   bands (ev):

   -70.5514 -44.8006 -44.7989 -43.5079 -18.4017 -14.5878  -9.6972  -8.7372
    -8.0571  -7.3960  -6.8498  -6.6334  -5.7142  -5.4225  -5.3363  -4.7694

          k = 0.0000-0.5774 0.0000 (  7146 PWs)   bands (ev):

   -70.5515 -44.8047 -44.7998 -43.5095 -18.2797 -14.4666  -9.9703  -8.5898
    -8.0520  -7.9745  -7.2008  -6.6634  -6.0802  -5.8286  -5.4473  -4.4492

          k = 0.2500 0.4330 0.0000 (  7144 PWs)   bands (ev):

   -70.5514 -44.8031 -44.8014 -43.5089 -18.2806 -14.4679  -9.7710  -8.7069
    -8.3781  -7.8537  -7.1347  -6.7145  -6.2602  -5.6765  -5.4951  -4.5421

     the Fermi energy is    -6.6370 ev

!    total energy              =    -178.29955740 Ry
     estimated scf accuracy    <       0.00000003 Ry
     smearing contrib. (-TS)   =      -0.00303112 Ry
     internal energy E=F+TS    =    -178.29652628 Ry

     The total energy is F=E-TS. E is the sum of the following terms:
     one-electron contribution =    -790.32968731 Ry
     hartree contribution      =     390.98010720 Ry
     xc contribution           =     -31.06467119 Ry
     ewald contribution        =     252.11772501 Ry

     convergence has been achieved in  51 iterations

     negative rho (up, down):  6.907E-01 0.000E+00

     Forces acting on atoms (cartesian axes, Ry/au):

     atom    1 type  3   force =     0.00000000    0.00000000    0.03933573
     atom    2 type  1   force =     0.00000000    0.00000000   -0.08971042
     atom    3 type  2   force =     0.00000000   -0.00000000    0.05037469

     Total force =     0.110149     Total SCF correction =     0.000198


     Computing stress (Cartesian axis) and pressure


     negative rho (up, down):  6.907E-01 0.000E+00
          total   stress  (Ry/bohr**3)                   (kbar)     P=      -48.79
  -0.00036936   0.00000000   0.00000000          -54.33        0.00        0.00
   0.00000000  -0.00036936  -0.00000000            0.00      -54.33       -0.00
   0.00000000   0.00000000  -0.00025619            0.00        0.00      -37.69


     BFGS Geometry Optimization
     Energy error            =      1.2E-02 Ry
     Gradient error          =      9.0E-02 Ry/Bohr

     number of scf cycles    =   1
     number of bfgs steps    =   0

     energy             new  =    -178.2995574015 Ry

     new trust radius        =       0.0897104192 bohr
     new conv_thr            =       0.0000001000 Ry


ATOMIC_POSITIONS (angstrom)
V                0.0000000000        0.0000000000        0.0208155699
C                2.2036289100        1.2722657500        1.3614094706
Se               2.2036289100        1.2722657500       -1.3822250405



     Writing config-only to output data dir ./tmp/candidate_02_VCSe.save/ :
     XML data file
     NEW-OLD atomic charge density approx. for the potential

     Check: negative core charge=   -0.000005

     negative rho (up, down):  6.938E-01 0.000E+00

     total cpu time spent up to now is      365.2 secs

     per-process dynamical memory:   163.4 Mb

     Self-consistent Calculation

     iteration #  1     ecut=    35.00 Ry     beta= 0.35
     Davidson diagonalization with overlap
     ethr =  1.00E-06,  avg # of iterations = 10.8

     negative rho (up, down):  6.407E-01 0.000E+00

     total cpu time spent up to now is      380.3 secs

     total energy              =    -178.27733637 Ry
     estimated scf accuracy    <       0.00555265 Ry

     iteration #  2     ecut=    35.00 Ry     beta= 0.35
     Davidson diagonalization with overlap
     ethr =  2.41E-05,  avg # of iterations =  6.2

     negative rho (up, down):  6.300E-01 0.000E+00

     total cpu time spent up to now is      389.1 secs

     total energy              =    -178.29005272 Ry
     estimated scf accuracy    <       0.08998092 Ry

     iteration #  3     ecut=    35.00 Ry     beta= 0.35
     Davidson diagonalization with overlap
     ethr =  2.41E-05,  avg # of iterations =  6.0

     negative rho (up, down):  6.357E-01 0.000E+00

     total cpu time spent up to now is      397.5 secs

     total energy              =    -178.30311511 Ry
     estimated scf accuracy    <       0.00177605 Ry

     iteration #  4     ecut=    35.00 Ry     beta= 0.35
     Davidson diagonalization with overlap
     ethr =  7.72E-06,  avg # of iterations =  2.0

     negative rho (up, down):  6.446E-01 0.000E+00

     total cpu time spent up to now is      402.9 secs

     total energy              =    -178.30570804 Ry
     estimated scf accuracy    <       0.00095752 Ry

     iteration #  5     ecut=    35.00 Ry     beta= 0.35
     Davidson diagonalization with overlap
     ethr =  4.16E-06,  avg # of iterations =  2.0

     negative rho (up, down):  6.541E-01 0.000E+00

     total cpu time spent up to now is      408.3 secs

     total energy              =    -178.30706975 Ry
     estimated scf accuracy    <       0.00110896 Ry

     iteration #  6     ecut=    35.00 Ry     beta= 0.35
     Davidson diagonalization with overlap
     ethr =  4.16E-06,  avg # of iterations =  2.0

     negative rho (up, down):  6.569E-01 0.000E+00

     total cpu time spent up to now is      413.8 secs

     total energy              =    -178.30790787 Ry
     estimated scf accuracy    <       0.00004273 Ry

     iteration #  7     ecut=    35.00 Ry     beta= 0.35
     Davidson diagonalization with overlap
     ethr =  1.86E-07,  avg # of iterations =  5.0

     negative rho (up, down):  6.576E-01 0.000E+00

     total cpu time spent up to now is      421.4 secs

     total energy              =    -178.30834094 Ry
     estimated scf accuracy    <       0.00001112 Ry

     iteration #  8     ecut=    35.00 Ry     beta= 0.35
     Davidson diagonalization with overlap
     ethr =  4.83E-08,  avg # of iterations =  3.8

     negative rho (up, down):  6.587E-01 0.000E+00

     total cpu time spent up to now is      428.2 secs

     total energy              =    -178.30852647 Ry
     estimated scf accuracy    <       0.00000896 Ry

     iteration #  9     ecut=    35.00 Ry     beta= 0.35
     Davidson diagonalization with overlap
     ethr =  3.90E-08,  avg # of iterations =  2.0

     negative rho (up, down):  6.595E-01 0.000E+00

     total cpu time spent up to now is      433.3 secs

     total energy              =    -178.30861054 Ry
     estimated scf accuracy    <       0.00000271 Ry

     iteration # 10     ecut=    35.00 Ry     beta= 0.35
     Davidson diagonalization with overlap
     ethr =  1.18E-08,  avg # of iterations =  4.0

     negative rho (up, down):  6.604E-01 0.000E+00

     total cpu time spent up to now is      441.0 secs

     total energy              =    -178.30866954 Ry
     estimated scf accuracy    <       0.00000025 Ry

     iteration # 11     ecut=    35.00 Ry     beta= 0.35
     Davidson diagonalization with overlap
     ethr =  1.09E-09,  avg # of iterations =  4.2

     negative rho (up, down):  6.611E-01 0.000E+00

     total cpu time spent up to now is      448.0 secs

     total energy              =    -178.30869735 Ry
     estimated scf accuracy    <       0.00000087 Ry

     iteration # 12     ecut=    35.00 Ry     beta= 0.35
     Davidson diagonalization with overlap
     ethr =  1.09E-09,  avg # of iterations =  4.0

     negative rho (up, down):  6.617E-01 0.000E+00

     total cpu time spent up to now is      455.3 secs

     total energy              =    -178.30871640 Ry
     estimated scf accuracy    <       0.00000053 Ry

     iteration # 13     ecut=    35.00 Ry     beta= 0.35
     Davidson diagonalization with overlap
     ethr =  1.09E-09,  avg # of iterations =  4.0

     negative rho (up, down):  6.620E-01 0.000E+00

     total cpu time spent up to now is      463.0 secs

     total energy              =    -178.30871958 Ry
     estimated scf accuracy    <       0.00000268 Ry

     iteration # 14     ecut=    35.00 Ry     beta= 0.35
     Davidson diagonalization with overlap
     ethr =  1.09E-09,  avg # of iterations =  4.0

     negative rho (up, down):  6.623E-01 0.000E+00

     total cpu time spent up to now is      470.2 secs

     total energy              =    -178.30872400 Ry
     estimated scf accuracy    <       0.00000019 Ry

     iteration # 15     ecut=    35.00 Ry     beta= 0.35
     Davidson diagonalization with overlap
     ethr =  8.21E-10,  avg # of iterations =  2.2

     negative rho (up, down):  6.625E-01 0.000E+00

     total cpu time spent up to now is      475.3 secs

     total energy              =    -178.30872624 Ry
     estimated scf accuracy    <       0.00000022 Ry

     iteration # 16     ecut=    35.00 Ry     beta= 0.35
     Davidson diagonalization with overlap
     ethr =  8.21E-10,  avg # of iterations =  2.0

     negative rho (up, down):  6.627E-01 0.000E+00

     total cpu time spent up to now is      480.3 secs

     total energy              =    -178.30872656 Ry
     estimated scf accuracy    <       0.00000021 Ry

     iteration # 17     ecut=    35.00 Ry     beta= 0.35
     Davidson diagonalization with overlap
     ethr =  8.21E-10,  avg # of iterations =  2.0

     negative rho (up, down):  6.630E-01 0.000E+00

     total cpu time spent up to now is      485.4 secs

     End of self-consistent calculation

          k = 0.0000 0.0000 0.0000 (  7151 PWs)   bands (ev):

   -70.5586 -44.7686 -44.7686 -43.4484 -18.5176 -14.6723  -9.5059  -8.0916
    -8.0916  -7.0005  -6.4523  -6.4523  -5.2314  -4.9742  -4.9742  -4.5279

          k = 0.0000 0.2887 0.0000 (  7108 PWs)   bands (ev):

   -70.5585 -44.7645 -44.7627 -43.4465 -18.4027 -14.5607  -9.4665  -8.7104
    -8.0535  -7.2288  -6.7835  -6.6256  -5.6570  -5.3659  -5.1776  -4.6909

          k = 0.0000-0.5774 0.0000 (  7146 PWs)   bands (ev):

   -70.5586 -44.7686 -44.7636 -43.4481 -18.2817 -14.4404  -9.8476  -8.4620
    -8.0406  -7.8089  -7.1152  -6.6650  -6.0328  -5.7782  -5.3076  -4.3410

          k = 0.2500 0.4330 0.0000 (  7144 PWs)   bands (ev):

   -70.5586 -44.7669 -44.7652 -43.4475 -18.2826 -14.4416  -9.6187  -8.6280
    -8.3470  -7.6790  -7.0932  -6.6678  -6.2106  -5.6272  -5.3780  -4.4314

     the Fermi energy is    -6.6123 ev

!    total energy              =    -178.30872787 Ry
     estimated scf accuracy    <       0.00000003 Ry
     smearing contrib. (-TS)   =      -0.00350954 Ry
     internal energy E=F+TS    =    -178.30521833 Ry

     The total energy is F=E-TS. E is the sum of the following terms:
     one-electron contribution =    -794.36145088 Ry
     hartree contribution      =     392.99858905 Ry
     xc contribution           =     -31.02455545 Ry
     ewald contribution        =     254.08219894 Ry

     convergence has been achieved in  17 iterations

     negative rho (up, down):  6.630E-01 0.000E+00

     Forces acting on atoms (cartesian axes, Ry/au):

     atom    1 type  3   force =     0.00000000    0.00000000   -0.14094678
     atom    2 type  1   force =     0.00000000    0.00000000   -0.00118109
     atom    3 type  2   force =     0.00000000    0.00000000    0.14212788

     Total force =     0.200169     Total SCF correction =     0.000148


     Computing stress (Cartesian axis) and pressure


     negative rho (up, down):  6.630E-01 0.000E+00
          total   stress  (Ry/bohr**3)                   (kbar)     P=      -47.01
  -0.00035485   0.00000000   0.00000000          -52.20        0.00        0.00
   0.00000000  -0.00035485   0.00000000            0.00      -52.20        0.00
   0.00000000   0.00000000  -0.00024901            0.00        0.00      -36.63

     Energy error            =      9.2E-03 Ry
     Gradient error          =      1.4E-01 Ry/Bohr

     number of scf cycles    =   2
     number of bfgs steps    =   1

     energy             old  =    -178.2995574015 Ry
     energy             new  =    -178.3087278728 Ry

     CASE: energy            _new < energy            _old

     new trust radius        =       0.1973629222 bohr
     new conv_thr            =       0.0000000917 Ry


ATOMIC_POSITIONS (angstrom)
V                0.0000000000        0.0000000000        0.0237003044
C                2.2036289100        1.2722657500        1.2569695098
Se               2.2036289100        1.2722657500       -1.2806698142



     Writing config-only to output data dir ./tmp/candidate_02_VCSe.save/ :
     XML data file
     NEW-OLD atomic charge density approx. for the potential

     Check: negative core charge=   -0.000005

     negative rho (up, down):  6.739E-01 0.000E+00

     total cpu time spent up to now is      494.3 secs

     per-process dynamical memory:   163.4 Mb

     Self-consistent Calculation

     iteration #  1     ecut=    35.00 Ry     beta= 0.35
     Davidson diagonalization with overlap
     c_bands:  1 eigenvalues not converged
     ethr =  1.00E-06,  avg # of iterations = 14.2

     negative rho (up, down):  6.739E-01 0.000E+00

     total cpu time spent up to now is      513.3 secs

     total energy              =    -178.32392827 Ry
     estimated scf accuracy    <       0.02020783 Ry

     iteration #  2     ecut=    35.00 Ry     beta= 0.35
     Davidson diagonalization with overlap
     ethr =  8.79E-05,  avg # of iterations =  5.2

     negative rho (up, down):  6.721E-01 0.000E+00

     total cpu time spent up to now is      521.8 secs

     total energy              =    -178.30769739 Ry
     estimated scf accuracy    <       0.45807860 Ry

     iteration #  3     ecut=    35.00 Ry     beta= 0.35
     Davidson diagonalization with overlap
     ethr =  8.79E-05,  avg # of iterations =  6.2

     negative rho (up, down):  6.693E-01 0.000E+00

     total cpu time spent up to now is      530.8 secs

     total energy              =    -178.33372628 Ry
     estimated scf accuracy    <       0.01105955 Ry

     iteration #  4     ecut=    35.00 Ry     beta= 0.35
     Davidson diagonalization with overlap
     ethr =  4.81E-05,  avg # of iterations =  1.5

     negative rho (up, down):  6.704E-01 0.000E+00

     total cpu time spent up to now is      535.5 secs

     total energy              =    -178.33475591 Ry
     estimated scf accuracy    <       0.00085476 Ry

     iteration #  5     ecut=    35.00 Ry     beta= 0.35
     Davidson diagonalization with overlap
     ethr =  3.72E-06,  avg # of iterations =  6.2

     negative rho (up, down):  6.709E-01 0.000E+00

     total cpu time spent up to now is      544.3 secs

     total energy              =    -178.33508014 Ry
     estimated scf accuracy    <       0.00093045 Ry

     iteration #  6     ecut=    35.00 Ry     beta= 0.35
     Davidson diagonalization with overlap
     ethr =  3.72E-06,  avg # of iterations =  1.0

     negative rho (up, down):  6.713E-01 0.000E+00

     total cpu time spent up to now is      548.6 secs

     total energy              =    -178.33509188 Ry
     estimated scf accuracy    <       0.00021796 Ry

     iteration #  7     ecut=    35.00 Ry     beta= 0.35
     Davidson diagonalization with overlap
     ethr =  9.48E-07,  avg # of iterations =  6.2

     negative rho (up, down):  6.714E-01 0.000E+00

     total cpu time spent up to now is      557.4 secs

     total energy              =    -178.33515191 Ry
     estimated scf accuracy    <       0.00025210 Ry

     iteration #  8     ecut=    35.00 Ry     beta= 0.35
     Davidson diagonalization with overlap
     ethr =  9.48E-07,  avg # of iterations =  2.0

     negative rho (up, down):  6.717E-01 0.000E+00

     total cpu time spent up to now is      562.2 secs

     total energy              =    -178.33517824 Ry
     estimated scf accuracy    <       0.00001225 Ry

     iteration #  9     ecut=    35.00 Ry     beta= 0.35
     Davidson diagonalization with overlap
     ethr =  5.32E-08,  avg # of iterations =  5.2

     negative rho (up, down):  6.720E-01 0.000E+00

     total cpu time spent up to now is      570.3 secs

     total energy              =    -178.33518813 Ry
     estimated scf accuracy    <       0.00000396 Ry

     iteration # 10     ecut=    35.00 Ry     beta= 0.35
     Davidson diagonalization with overlap
     ethr =  1.72E-08,  avg # of iterations =  4.5

     negative rho (up, down):  6.722E-01 0.000E+00

     total cpu time spent up to now is      577.2 secs

     total energy              =    -178.33519163 Ry
     estimated scf accuracy    <       0.00000042 Ry

     iteration # 11     ecut=    35.00 Ry     beta= 0.35
     Davidson diagonalization with overlap
     ethr =  1.82E-09,  avg # of iterations =  4.0

     negative rho (up, down):  6.724E-01 0.000E+00

     total cpu time spent up to now is      584.2 secs

     total energy              =    -178.33519287 Ry
     estimated scf accuracy    <       0.00000011 Ry

     iteration # 12     ecut=    35.00 Ry     beta= 0.35
     Davidson diagonalization with overlap
     ethr =  4.61E-10,  avg # of iterations =  5.2

     negative rho (up, down):  6.729E-01 0.000E+00

     total cpu time spent up to now is      592.2 secs

     End of self-consistent calculation

          k = 0.0000 0.0000 0.0000 (  7151 PWs)   bands (ev):

   -70.4636 -44.6900 -44.6900 -43.3539 -18.7689 -14.6193  -9.3903  -8.3564
    -8.3564  -7.0436  -6.4114  -6.4114  -4.8930  -4.8538  -4.8538  -4.6141

          k = 0.0000 0.2887 0.0000 (  7108 PWs)   bands (ev):

   -70.4635 -44.6859 -44.6842 -43.3520 -18.6511 -14.5112  -9.5312  -8.8331
    -8.3077  -7.2017  -6.6986  -6.5968  -5.5919  -5.2808  -4.8844  -4.4171

          k = 0.0000-0.5774 0.0000 (  7146 PWs)   bands (ev):

   -70.4635 -44.6902 -44.6851 -43.3536 -18.5270 -14.3947 -10.0557  -8.4707
    -8.2751  -7.7687  -7.0061  -6.6580  -5.9949  -5.7202  -5.0319  -3.9761

          k = 0.2500 0.4330 0.0000 (  7144 PWs)   bands (ev):

   -70.4635 -44.6885 -44.6867 -43.3530 -18.5280 -14.3958  -9.8186  -8.7950
    -8.4326  -7.6166  -7.0471  -6.5854  -6.1748  -5.5732  -5.1510  -4.0791

     the Fermi energy is    -6.5590 ev

!    total energy              =    -178.33519432 Ry
     estimated scf accuracy    <          4.9E-09 Ry
     smearing contrib. (-TS)   =      -0.00381290 Ry
     internal energy E=F+TS    =    -178.33138141 Ry

     The total energy is F=E-TS. E is the sum of the following terms:
     one-electron contribution =    -806.47362802 Ry
     hartree contribution      =     399.07838407 Ry
     xc contribution           =     -31.07273205 Ry
     ewald contribution        =     260.13659458 Ry

     convergence has been achieved in  12 iterations

     negative rho (up, down):  6.729E-01 0.000E+00

     Forces acting on atoms (cartesian axes, Ry/au):

     atom    1 type  3   force =     0.00000000    0.00000000   -0.17906333
     atom    2 type  1   force =     0.00000000    0.00000000    0.02087190
     atom    3 type  2   force =     0.00000000    0.00000000    0.15819143

     Total force =     0.239841     Total SCF correction =     0.000151


     Computing stress (Cartesian axis) and pressure


     negative rho (up, down):  6.729E-01 0.000E+00
          total   stress  (Ry/bohr**3)                   (kbar)     P=      -45.70
  -0.00034774   0.00000000   0.00000000          -51.15        0.00        0.00
   0.00000000  -0.00034774   0.00000000            0.00      -51.15        0.00
   0.00000000  -0.00000000  -0.00023640            0.00       -0.00      -34.78

     Energy error            =      2.6E-02 Ry
     Gradient error          =      1.8E-01 Ry/Bohr

     number of scf cycles    =   3
     number of bfgs steps    =   2

     energy             old  =    -178.3087278728 Ry
     energy             new  =    -178.3351943161 Ry

     CASE: energy            _new < energy            _old


     WARNING: bfgs curvature condition failed, Theta= 0.901
     new trust radius        =       0.2960443834 bohr
     new conv_thr            =       0.0000001000 Ry


ATOMIC_POSITIONS (angstrom)
V                0.0000000000        0.0000000000        0.0228630061
C                2.2036289100        1.2722657500        1.1011468670
Se               2.2036289100        1.2722657500       -1.1240098731



     Writing config-only to output data dir ./tmp/candidate_02_VCSe.save/ :
     XML data file
     NEW-OLD atomic charge density approx. for the potential

     Check: negative core charge=   -0.000005

     negative rho (up, down):  6.882E-01 0.000E+00

     total cpu time spent up to now is      601.0 secs

     per-process dynamical memory:   163.4 Mb

     Self-consistent Calculation

     iteration #  1     ecut=    35.00 Ry     beta= 0.35
     Davidson diagonalization with overlap
     c_bands:  1 eigenvalues not converged
     ethr =  1.00E-06,  avg # of iterations = 16.0

     negative rho (up, down):  6.865E-01 0.000E+00

     total cpu time spent up to now is      621.6 secs

     total energy              =    -178.34534410 Ry
     estimated scf accuracy    <       0.05521315 Ry

     iteration #  2     ecut=    35.00 Ry     beta= 0.35
     Davidson diagonalization with overlap
     ethr =  2.40E-04,  avg # of iterations =  4.0

     negative rho (up, down):  6.794E-01 0.000E+00

     total cpu time spent up to now is      628.4 secs

     total energy              =    -178.32218990 Ry
     estimated scf accuracy    <       0.76390909 Ry

     iteration #  3     ecut=    35.00 Ry     beta= 0.35
     Davidson diagonalization with overlap
     ethr =  2.40E-04,  avg # of iterations =  4.8

     negative rho (up, down):  6.708E-01 0.000E+00

     total cpu time spent up to now is      635.6 secs

     total energy              =    -178.36910795 Ry
     estimated scf accuracy    <       0.02668098 Ry

     iteration #  4     ecut=    35.00 Ry     beta= 0.35
     Davidson diagonalization with overlap
     ethr =  1.16E-04,  avg # of iterations =  3.0

     negative rho (up, down):  6.708E-01 0.000E+00

     total cpu time spent up to now is      641.8 secs

     total energy              =    -178.37213279 Ry
     estimated scf accuracy    <       0.00053913 Ry

     iteration #  5     ecut=    35.00 Ry     beta= 0.35
     Davidson diagonalization with overlap
     ethr =  2.34E-06,  avg # of iterations =  8.0

     negative rho (up, down):  6.706E-01 0.000E+00

     total cpu time spent up to now is      653.2 secs

     total energy              =    -178.37240363 Ry
     estimated scf accuracy    <       0.00086713 Ry

     iteration #  6     ecut=    35.00 Ry     beta= 0.35
     Davidson diagonalization with overlap
     ethr =  2.34E-06,  avg # of iterations =  2.0

     negative rho (up, down):  6.698E-01 0.000E+00

     total cpu time spent up to now is      657.9 secs

     total energy              =    -178.37250193 Ry
     estimated scf accuracy    <       0.00007211 Ry

     iteration #  7     ecut=    35.00 Ry     beta= 0.35
     Davidson diagonalization with overlap
     ethr =  3.14E-07,  avg # of iterations =  5.0

     negative rho (up, down):  6.690E-01 0.000E+00

     total cpu time spent up to now is      665.6 secs

     total energy              =    -178.37251855 Ry
     estimated scf accuracy    <       0.00006911 Ry

     iteration #  8     ecut=    35.00 Ry     beta= 0.35
     Davidson diagonalization with overlap
     ethr =  3.00E-07,  avg # of iterations =  1.5

     negative rho (up, down):  6.687E-01 0.000E+00

     total cpu time spent up to now is      669.5 secs

     total energy              =    -178.37252736 Ry
     estimated scf accuracy    <       0.00000438 Ry

     iteration #  9     ecut=    35.00 Ry     beta= 0.35
     Davidson diagonalization with overlap
     ethr =  1.91E-08,  avg # of iterations =  5.0

     negative rho (up, down):  6.686E-01 0.000E+00

     total cpu time spent up to now is      677.6 secs

     total energy              =    -178.37253012 Ry
     estimated scf accuracy    <       0.00000061 Ry

     iteration # 10     ecut=    35.00 Ry     beta= 0.35
     Davidson diagonalization with overlap
     ethr =  2.65E-09,  avg # of iterations =  2.8

     negative rho (up, down):  6.685E-01 0.000E+00

     total cpu time spent up to now is      683.7 secs

     total energy              =    -178.37253082 Ry
     estimated scf accuracy    <       0.00000029 Ry

     iteration # 11     ecut=    35.00 Ry     beta= 0.35
     Davidson diagonalization with overlap
     ethr =  1.27E-09,  avg # of iterations =  2.0

     negative rho (up, down):  6.683E-01 0.000E+00

     total cpu time spent up to now is      688.5 secs

     End of self-consistent calculation

          k = 0.0000 0.0000 0.0000 (  7151 PWs)   bands (ev):

   -70.2781 -44.5192 -44.5192 -43.1809 -19.4012 -14.5258  -9.1383  -8.8661
    -8.8661  -7.2426  -6.2778  -6.2778  -4.6709  -4.6709  -4.6489  -4.3499

          k = 0.0000 0.2887 0.0000 (  7108 PWs)   bands (ev):

   -70.2780 -44.5151 -44.5136 -43.1789 -19.2838 -14.4299  -9.8466  -8.8238
    -8.8022  -7.1585  -6.5295  -6.4860  -5.4741  -5.1483  -4.6052  -3.7914

          k = 0.0000-0.5774 0.0000 (  7146 PWs)   bands (ev):

   -70.2780 -44.5198 -44.5143 -43.1805 -19.1605 -14.3280 -10.4513  -8.7433
    -8.4413  -7.6295  -6.7862  -6.5866  -5.9308  -5.6145  -4.6996  -3.5324

          k = 0.2500 0.4330 0.0000 (  7144 PWs)   bands (ev):

   -70.2780 -44.5181 -44.5160 -43.1799 -19.1615 -14.3284 -10.2167  -9.1958
    -8.4466  -7.4542  -6.9334  -6.4160  -6.0757  -5.4996  -4.8663  -3.5769

     the Fermi energy is    -6.4185 ev

!    total energy              =    -178.37253227 Ry
     estimated scf accuracy    <       0.00000001 Ry
     smearing contrib. (-TS)   =      -0.00346932 Ry
     internal energy E=F+TS    =    -178.36906296 Ry

     The total energy is F=E-TS. E is the sum of the following terms:
     one-electron contribution =    -824.48094135 Ry
     hartree contribution      =     408.12363119 Ry
     xc contribution           =     -31.17010855 Ry
     ewald contribution        =     269.15835576 Ry

     convergence has been achieved in  11 iterations

     negative rho (up, down):  6.683E-01 0.000E+00

     Forces acting on atoms (cartesian axes, Ry/au):

     atom    1 type  3   force =     0.00000000    0.00000000   -0.12183785
     atom    2 type  1   force =     0.00000000   -0.00000000    0.00908627
     atom    3 type  2   force =     0.00000000    0.00000000    0.11275158

     Total force =     0.166253     Total SCF correction =     0.000363


     Computing stress (Cartesian axis) and pressure


     negative rho (up, down):  6.683E-01 0.000E+00
          total   stress  (Ry/bohr**3)                   (kbar)     P=      -42.50
  -0.00033059   0.00000000   0.00000000          -48.63        0.00        0.00
   0.00000000  -0.00033059   0.00000000            0.00      -48.63        0.00
   0.00000000   0.00000000  -0.00020550            0.00        0.00      -30.23

     Energy error            =      3.7E-02 Ry
     Gradient error          =      1.2E-01 Ry/Bohr

     number of scf cycles    =   4
     number of bfgs steps    =   3

     energy             old  =    -178.3351943161 Ry
     energy             new  =    -178.3725322741 Ry

     CASE: energy            _new < energy            _old

     new trust radius        =       0.4440665750 bohr
     new conv_thr            =       0.0000001000 Ry


ATOMIC_POSITIONS (angstrom)
V                0.0000000000        0.0000000000        0.0238900131
C                2.2036289100        1.2722657500        0.8661569554
Se               2.2036289100        1.2722657500       -0.8900469685



     Writing config-only to output data dir ./tmp/candidate_02_VCSe.save/ :
     XML data file
     NEW-OLD atomic charge density approx. for the potential

     Check: negative core charge=   -0.000005

     negative rho (up, down):  6.891E-01 0.000E+00

     total cpu time spent up to now is      697.4 secs

     per-process dynamical memory:   163.4 Mb

     Self-consistent Calculation

     iteration #  1     ecut=    35.00 Ry     beta= 0.35
     Davidson diagonalization with overlap
     c_bands:  1 eigenvalues not converged
     ethr =  1.00E-06,  avg # of iterations = 14.8

     negative rho (up, down):  6.869E-01 0.000E+00

     total cpu time spent up to now is      717.5 secs

     total energy              =    -178.29991783 Ry
     estimated scf accuracy    <       0.15432303 Ry

     iteration #  2     ecut=    35.00 Ry     beta= 0.35
     Davidson diagonalization with overlap
     ethr =  6.71E-04,  avg # of iterations =  3.2

     negative rho (up, down):  6.674E-01 0.000E+00

     total cpu time spent up to now is      724.3 secs

     total energy              =    -178.30022398 Ry
     estimated scf accuracy    <       0.54795285 Ry

     iteration #  3     ecut=    35.00 Ry     beta= 0.35
     Davidson diagonalization with overlap
     ethr =  6.71E-04,  avg # of iterations =  2.2

     negative rho (up, down):  6.529E-01 0.000E+00

     total cpu time spent up to now is      729.8 secs

     total energy              =    -178.35189666 Ry
     estimated scf accuracy    <       0.05656661 Ry

     iteration #  4     ecut=    35.00 Ry     beta= 0.35
     Davidson diagonalization with overlap
     ethr =  2.46E-04,  avg # of iterations =  2.0

     negative rho (up, down):  6.525E-01 0.000E+00

     total cpu time spent up to now is      734.3 secs

     total energy              =    -178.35990356 Ry
     estimated scf accuracy    <       0.00340524 Ry

     iteration #  5     ecut=    35.00 Ry     beta= 0.35
     Davidson diagonalization with overlap
     ethr =  1.48E-05,  avg # of iterations =  4.2

     negative rho (up, down):  6.526E-01 0.000E+00

     total cpu time spent up to now is      741.4 secs

     total energy              =    -178.36033198 Ry
     estimated scf accuracy    <       0.00112811 Ry

     iteration #  6     ecut=    35.00 Ry     beta= 0.35
     Davidson diagonalization with overlap
     ethr =  4.90E-06,  avg # of iterations =  2.0

     negative rho (up, down):  6.524E-01 0.000E+00

     total cpu time spent up to now is      746.5 secs

     total energy              =    -178.36054725 Ry
     estimated scf accuracy    <       0.00022575 Ry

     iteration #  7     ecut=    35.00 Ry     beta= 0.35
     Davidson diagonalization with overlap
     ethr =  9.82E-07,  avg # of iterations =  1.8

     negative rho (up, down):  6.527E-01 0.000E+00

     total cpu time spent up to now is      751.5 secs

     total energy              =    -178.36056259 Ry
     estimated scf accuracy    <       0.00001865 Ry

     iteration #  8     ecut=    35.00 Ry     beta= 0.35
     Davidson diagonalization with overlap
     ethr =  8.11E-08,  avg # of iterations =  3.2

     negative rho (up, down):  6.533E-01 0.000E+00

     total cpu time spent up to now is      758.0 secs

     total energy              =    -178.36056091 Ry
     estimated scf accuracy    <       0.00000411 Ry

     iteration #  9     ecut=    35.00 Ry     beta= 0.35
     Davidson diagonalization with overlap
     ethr =  1.79E-08,  avg # of iterations =  3.0

     negative rho (up, down):  6.536E-01 0.000E+00

     total cpu time spent up to now is      763.5 secs

     total energy              =    -178.36055835 Ry
     estimated scf accuracy    <       0.00000063 Ry

     iteration # 10     ecut=    35.00 Ry     beta= 0.35
     Davidson diagonalization with overlap
     ethr =  2.76E-09,  avg # of iterations =  3.5

     negative rho (up, down):  6.537E-01 0.000E+00

     total cpu time spent up to now is      770.0 secs

     total energy              =    -178.36055742 Ry
     estimated scf accuracy    <       0.00000037 Ry

     iteration # 11     ecut=    35.00 Ry     beta= 0.35
     Davidson diagonalization with overlap
     ethr =  1.63E-09,  avg # of iterations =  2.0

     negative rho (up, down):  6.539E-01 0.000E+00

     total cpu time spent up to now is      775.1 secs

     End of self-consistent calculation

          k = 0.0000 0.0000 0.0000 (  7151 PWs)   bands (ev):

   -69.8215 -44.0748 -44.0748 -42.8126 -21.4887 -14.3730 -10.0662 -10.0662
    -8.6965  -7.6641  -5.8842  -5.8842  -4.4088  -4.4088  -4.3823  -4.2008

          k = 0.0000 0.2887 0.0000 (  7108 PWs)   bands (ev):

   -69.8213 -44.0708 -44.0698 -42.8106 -21.3979 -14.2953 -10.8622  -9.9997
    -8.4730  -7.1506  -6.1480  -6.1284  -5.1976  -4.9165  -4.2796  -3.5070

          k = 0.0000-0.5774 0.0000 (  7146 PWs)   bands (ev):

   -69.8214 -44.0765 -44.0701 -42.8121 -21.3044 -14.2138 -11.3847  -9.9317
    -8.2259  -7.2874  -6.3373  -6.2908  -5.7674  -5.3647  -4.2517  -2.8568

          k = 0.2500 0.4330 0.0000 (  7144 PWs)   bands (ev):

   -69.8214 -44.0746 -44.0720 -42.8115 -21.3050 -14.2135 -11.1794 -10.2749
    -8.2225  -7.1061  -6.6245  -6.1308  -5.7223  -5.2858  -4.4436  -2.9473

     the Fermi energy is    -6.0775 ev

!    total energy              =    -178.36055647 Ry
     estimated scf accuracy    <       0.00000007 Ry
     smearing contrib. (-TS)   =      -0.00333193 Ry
     internal energy E=F+TS    =    -178.35722454 Ry

     The total energy is F=E-TS. E is the sum of the following terms:
     one-electron contribution =    -850.33715395 Ry
     hartree contribution      =     421.12334734 Ry
     xc contribution           =     -31.43966957 Ry
     ewald contribution        =     282.29625164 Ry

     convergence has been achieved in  11 iterations

     negative rho (up, down):  6.539E-01 0.000E+00

     Forces acting on atoms (cartesian axes, Ry/au):

     atom    1 type  3   force =     0.00000000    0.00000000   -0.07679180
     atom    2 type  1   force =     0.00000000    0.00000000    0.19445242
     atom    3 type  2   force =     0.00000000    0.00000000   -0.11766062

     Total force =     0.239902     Total SCF correction =     0.000404


     Computing stress (Cartesian axis) and pressure


     negative rho (up, down):  6.539E-01 0.000E+00
          total   stress  (Ry/bohr**3)                   (kbar)     P=      -21.53
  -0.00028797   0.00000000   0.00000000          -42.36        0.00        0.00
   0.00000000  -0.00028797  -0.00000000            0.00      -42.36       -0.00
   0.00000000  -0.00000000   0.00013683            0.00       -0.00       20.13

     Energy error            =      1.2E-02 Ry
     Gradient error          =      1.9E-01 Ry/Bohr

     number of scf cycles    =   5
     number of bfgs steps    =   4

     energy             old  =    -178.3725322741 Ry
     energy             new  =    -178.3605564743 Ry

     CASE: energy            _new > energy            _old

     new trust radius        =       0.1758333952 bohr
     new conv_thr            =       0.0000001000 Ry


ATOMIC_POSITIONS (angstrom)
V                0.0000000000        0.0000000000        0.0232696617
C                2.2036289100        1.2722657500        1.0080998413
Se               2.2036289100        1.2722657500       -1.0313695030



     Writing config-only to output data dir ./tmp/candidate_02_VCSe.save/ :
     XML data file
     NEW-OLD atomic charge density approx. for the potential

     Check: negative core charge=   -0.000005

     negative rho (up, down):  6.422E-01 0.000E+00

     total cpu time spent up to now is      784.1 secs

     per-process dynamical memory:   163.4 Mb

     Self-consistent Calculation

     iteration #  1     ecut=    35.00 Ry     beta= 0.35
     Davidson diagonalization with overlap
     c_bands:  1 eigenvalues not converged
     ethr =  1.00E-06,  avg # of iterations = 13.2

     negative rho (up, down):  6.449E-01 0.000E+00

     total cpu time spent up to now is      801.3 secs

     total energy              =    -178.35145345 Ry
     estimated scf accuracy    <       0.08203457 Ry

     iteration #  2     ecut=    35.00 Ry     beta= 0.35
     Davidson diagonalization with overlap
     ethr =  3.57E-04,  avg # of iterations =  4.0

     negative rho (up, down):  6.586E-01 0.000E+00

     total cpu time spent up to now is      808.5 secs

     total energy              =    -178.34567928 Ry
     estimated scf accuracy    <       0.45389260 Ry

     iteration #  3     ecut=    35.00 Ry     beta= 0.35
     Davidson diagonalization with overlap
     ethr =  3.57E-04,  avg # of iterations =  4.0

     negative rho (up, down):  6.635E-01 0.000E+00

     total cpu time spent up to now is      815.4 secs

     total energy              =    -178.38338837 Ry
     estimated scf accuracy    <       0.00835167 Ry

     iteration #  4     ecut=    35.00 Ry     beta= 0.35
     Davidson diagonalization with overlap
     ethr =  3.63E-05,  avg # of iterations =  4.5

     negative rho (up, down):  6.629E-01 0.000E+00

     total cpu time spent up to now is      822.5 secs

     total energy              =    -178.38573779 Ry
     estimated scf accuracy    <       0.00486729 Ry

     iteration #  5     ecut=    35.00 Ry     beta= 0.35
     Davidson diagonalization with overlap
     ethr =  2.12E-05,  avg # of iterations =  2.2

     negative rho (up, down):  6.640E-01 0.000E+00

     total cpu time spent up to now is      827.5 secs

     total energy              =    -178.38587635 Ry
     estimated scf accuracy    <       0.00101249 Ry

     iteration #  6     ecut=    35.00 Ry     beta= 0.35
     Davidson diagonalization with overlap
     ethr =  4.40E-06,  avg # of iterations =  5.0

     negative rho (up, down):  6.648E-01 0.000E+00

     total cpu time spent up to now is      835.5 secs

     total energy              =    -178.38608995 Ry
     estimated scf accuracy    <       0.00101956 Ry

     iteration #  7     ecut=    35.00 Ry     beta= 0.35
     Davidson diagonalization with overlap
     ethr =  4.40E-06,  avg # of iterations =  1.5

     negative rho (up, down):  6.647E-01 0.000E+00

     total cpu time spent up to now is      840.0 secs

     total energy              =    -178.38613509 Ry
     estimated scf accuracy    <       0.00007917 Ry

     iteration #  8     ecut=    35.00 Ry     beta= 0.35
     Davidson diagonalization with overlap
     ethr =  3.44E-07,  avg # of iterations =  3.5

     negative rho (up, down):  6.643E-01 0.000E+00

     total cpu time spent up to now is      846.3 secs

     total energy              =    -178.38613082 Ry
     estimated scf accuracy    <       0.00002738 Ry

     iteration #  9     ecut=    35.00 Ry     beta= 0.35
     Davidson diagonalization with overlap
     ethr =  1.19E-07,  avg # of iterations =  7.8

     negative rho (up, down):  6.640E-01 0.000E+00

     total cpu time spent up to now is      855.9 secs

     total energy              =    -178.38614288 Ry
     estimated scf accuracy    <       0.00011802 Ry

     iteration # 10     ecut=    35.00 Ry     beta= 0.35
     Davidson diagonalization with overlap
     ethr =  1.19E-07,  avg # of iterations =  2.8

     negative rho (up, down):  6.639E-01 0.000E+00

     total cpu time spent up to now is      861.1 secs

     total energy              =    -178.38614645 Ry
     estimated scf accuracy    <       0.00001025 Ry

     iteration # 11     ecut=    35.00 Ry     beta= 0.35
     Davidson diagonalization with overlap
     ethr =  4.46E-08,  avg # of iterations =  4.8

     negative rho (up, down):  6.638E-01 0.000E+00

     total cpu time spent up to now is      868.7 secs

     total energy              =    -178.38614834 Ry
     estimated scf accuracy    <       0.00001313 Ry

     iteration # 12     ecut=    35.00 Ry     beta= 0.35
     Davidson diagonalization with overlap
     ethr =  4.46E-08,  avg # of iterations =  1.2

     negative rho (up, down):  6.638E-01 0.000E+00

     total cpu time spent up to now is      872.8 secs

     total energy              =    -178.38614945 Ry
     estimated scf accuracy    <       0.00000043 Ry

     iteration # 13     ecut=    35.00 Ry     beta= 0.35
     Davidson diagonalization with overlap
     ethr =  1.89E-09,  avg # of iterations =  4.5

     negative rho (up, down):  6.636E-01 0.000E+00

     total cpu time spent up to now is      879.6 secs

     End of self-consistent calculation

          k = 0.0000 0.0000 0.0000 (  7151 PWs)   bands (ev):

   -70.1266 -44.3746 -44.3746 -43.0544 -20.0218 -14.4698  -9.2593  -9.2593
    -8.9506  -7.4321  -6.1537  -6.1537  -4.5650  -4.5650  -4.5367  -4.2672

          k = 0.0000 0.2887 0.0000 (  7108 PWs)   bands (ev):

   -70.1265 -44.3705 -44.3692 -43.0524 -19.9107 -14.3829 -10.1720  -9.1907
    -8.7114  -7.1494  -6.4033  -6.3767  -5.3783  -5.0636  -4.4623  -3.5805

          k = 0.0000-0.5774 0.0000 (  7146 PWs)   bands (ev):

   -70.1265 -44.3756 -44.3698 -43.0540 -19.7947 -14.2916 -10.7576  -9.1230
    -8.3826  -7.5119  -6.6245  -6.5026  -5.8781  -5.5317  -4.5244  -3.2953

          k = 0.2500 0.4330 0.0000 (  7144 PWs)   bands (ev):

   -70.1265 -44.3738 -44.3715 -43.0534 -19.7956 -14.2916 -10.5319  -9.5374
    -8.3894  -7.3298  -6.8356  -6.3056  -5.9664  -5.4372  -4.7073  -3.3392

     the Fermi energy is    -6.3048 ev

!    total energy              =    -178.38615063 Ry
     estimated scf accuracy    <       0.00000003 Ry
     smearing contrib. (-TS)   =      -0.00325897 Ry
     internal energy E=F+TS    =    -178.38289167 Ry

     The total energy is F=E-TS. E is the sum of the following terms:
     one-electron contribution =    -834.87431420 Ry
     hartree contribution      =     413.34834855 Ry
     xc contribution           =     -31.25295620 Ry
     ewald contribution        =     274.39603018 Ry

     convergence has been achieved in  13 iterations

     negative rho (up, down):  6.636E-01 0.000E+00

     Forces acting on atoms (cartesian axes, Ry/au):

     atom    1 type  3   force =     0.00000000    0.00000000   -0.10306565
     atom    2 type  1   force =     0.00000000   -0.00000000    0.03222149
     atom    3 type  2   force =     0.00000000    0.00000000    0.07084416

     Total force =     0.129150     Total SCF correction =     0.000383


     Computing stress (Cartesian axis) and pressure


     negative rho (up, down):  6.636E-01 0.000E+00
          total   stress  (Ry/bohr**3)                   (kbar)     P=      -38.10
  -0.00031704   0.00000000   0.00000000          -46.64        0.00        0.00
   0.00000000  -0.00031704   0.00000000            0.00      -46.64        0.00
   0.00000000   0.00000000  -0.00014290            0.00        0.00      -21.02

     Energy error            =      1.4E-02 Ry
     Gradient error          =      1.0E-01 Ry/Bohr

     number of scf cycles    =   6
     number of bfgs steps    =   4

     energy             old  =    -178.3725322741 Ry
     energy             new  =    -178.3861506346 Ry

     CASE: energy            _new < energy            _old

     new trust radius        =       0.1033253052 bohr
     new conv_thr            =       0.0000001000 Ry


ATOMIC_POSITIONS (angstrom)
V               -0.0000000000        0.0000000000        0.0156238584
C                2.2036289100        1.2722657500        0.9610682478
Se               2.2036289100        1.2722657500       -0.9766921062



     Writing config-only to output data dir ./tmp/candidate_02_VCSe.save/ :
     XML data file
     NEW-OLD atomic charge density approx. for the potential

     Check: negative core charge=   -0.000005

     negative rho (up, down):  6.681E-01 0.000E+00

     total cpu time spent up to now is      888.3 secs

     per-process dynamical memory:   163.4 Mb

     Self-consistent Calculation

     iteration #  1     ecut=    35.00 Ry     beta= 0.35
     Davidson diagonalization with overlap
     ethr =  1.00E-06,  avg # of iterations = 10.0

     negative rho (up, down):  6.585E-01 0.000E+00

     total cpu time spent up to now is      902.3 secs

     total energy              =    -178.38037118 Ry
     estimated scf accuracy    <       0.00909501 Ry

     iteration #  2     ecut=    35.00 Ry     beta= 0.35
     Davidson diagonalization with overlap
     ethr =  3.95E-05,  avg # of iterations =  5.2

     negative rho (up, down):  6.536E-01 0.000E+00

     total cpu time spent up to now is      910.3 secs

     total energy              =    -178.37959325 Ry
     estimated scf accuracy    <       0.06842402 Ry

     iteration #  3     ecut=    35.00 Ry     beta= 0.35
     Davidson diagonalization with overlap
     ethr =  3.95E-05,  avg # of iterations =  3.5

     negative rho (up, down):  6.533E-01 0.000E+00

     total cpu time spent up to now is      916.6 secs

     total energy              =    -178.38515048 Ry
     estimated scf accuracy    <       0.00468014 Ry

     iteration #  4     ecut=    35.00 Ry     beta= 0.35
     Davidson diagonalization with overlap
     ethr =  2.03E-05,  avg # of iterations =  2.0

     negative rho (up, down):  6.574E-01 0.000E+00

     total cpu time spent up to now is      921.2 secs

     total energy              =    -178.38612540 Ry
     estimated scf accuracy    <       0.00022261 Ry

     iteration #  5     ecut=    35.00 Ry     beta= 0.35
     Davidson diagonalization with overlap
     ethr =  9.68E-07,  avg # of iterations =  5.8

     negative rho (up, down):  6.633E-01 0.000E+00

     total cpu time spent up to now is      929.9 secs

     total energy              =    -178.38632027 Ry
     estimated scf accuracy    <       0.00015623 Ry

     iteration #  6     ecut=    35.00 Ry     beta= 0.35
     Davidson diagonalization with overlap
     ethr =  6.79E-07,  avg # of iterations =  2.2

     negative rho (up, down):  6.666E-01 0.000E+00

     total cpu time spent up to now is      935.3 secs

     total energy              =    -178.38636175 Ry
     estimated scf accuracy    <       0.00003465 Ry

     iteration #  7     ecut=    35.00 Ry     beta= 0.35
     Davidson diagonalization with overlap
     ethr =  1.51E-07,  avg # of iterations =  2.0

     negative rho (up, down):  6.686E-01 0.000E+00

     total cpu time spent up to now is      940.5 secs

     total energy              =    -178.38638175 Ry
     estimated scf accuracy    <       0.00000353 Ry

     iteration #  8     ecut=    35.00 Ry     beta= 0.35
     Davidson diagonalization with overlap
     ethr =  1.53E-08,  avg # of iterations =  4.0

     negative rho (up, down):  6.700E-01 0.000E+00

     total cpu time spent up to now is      947.0 secs

     total energy              =    -178.38638679 Ry
     estimated scf accuracy    <       0.00000060 Ry

     iteration #  9     ecut=    35.00 Ry     beta= 0.35
     Davidson diagonalization with overlap
     ethr =  2.62E-09,  avg # of iterations =  5.0

     negative rho (up, down):  6.710E-01 0.000E+00

     total cpu time spent up to now is      954.7 secs

     total energy              =    -178.38638492 Ry
     estimated scf accuracy    <       0.00000040 Ry

     iteration # 10     ecut=    35.00 Ry     beta= 0.35
     Davidson diagonalization with overlap
     ethr =  1.76E-09,  avg # of iterations =  2.8

     negative rho (up, down):  6.716E-01 0.000E+00

     total cpu time spent up to now is      960.4 secs

     total energy              =    -178.38638208 Ry
     estimated scf accuracy    <       0.00000036 Ry

     iteration # 11     ecut=    35.00 Ry     beta= 0.35
     Davidson diagonalization with overlap
     ethr =  1.56E-09,  avg # of iterations =  2.5

     negative rho (up, down):  6.729E-01 0.000E+00

     total cpu time spent up to now is      965.8 secs

     End of self-consistent calculation

          k = 0.0000 0.0000 0.0000 (  7151 PWs)   bands (ev):

   -70.0406 -44.2910 -44.2910 -42.9824 -20.5159 -14.4684  -9.5627  -9.5627
    -8.9010  -7.6615  -6.0883  -6.0883  -4.5359  -4.5359  -4.5132  -4.2992

          k = 0.0000 0.2887 0.0000 (  7108 PWs)   bands (ev):

   -70.0404 -44.2870 -44.2858 -42.9804 -20.4097 -14.3862 -10.4559  -9.4928
    -8.6771  -7.2539  -6.3563  -6.3207  -5.3543  -5.0462  -4.4112  -3.5717

          k = 0.0000-0.5774 0.0000 (  7146 PWs)   bands (ev):

   -70.0405 -44.2922 -44.2863 -42.9819 -20.2993 -14.3003 -11.0272  -9.4224
    -8.3627  -7.5388  -6.5790  -6.4618  -5.8830  -5.5118  -4.4451  -3.1614

          k = 0.2500 0.4330 0.0000 (  7144 PWs)   bands (ev):

   -70.0405 -44.2904 -44.2881 -42.9813 -20.3002 -14.3001 -10.8098  -9.8168
    -8.3696  -7.3498  -6.8019  -6.2802  -5.9364  -5.4239  -4.6323  -3.2135

     the Fermi energy is    -6.2610 ev

!    total energy              =    -178.38637063 Ry
     estimated scf accuracy    <       0.00000001 Ry
     smearing contrib. (-TS)   =      -0.00321422 Ry
     internal energy E=F+TS    =    -178.38315641 Ry

     The total energy is F=E-TS. E is the sum of the following terms:
     one-electron contribution =    -840.57000392 Ry
     hartree contribution      =     416.20158670 Ry
     xc contribution           =     -31.33643185 Ry
     ewald contribution        =     277.32169266 Ry

     convergence has been achieved in  11 iterations

     negative rho (up, down):  6.729E-01 0.000E+00

     Forces acting on atoms (cartesian axes, Ry/au):

     atom    1 type  3   force =     0.00000000    0.00000000    0.10103684
     atom    2 type  1   force =     0.00000000    0.00000000   -0.03126759
     atom    3 type  2   force =     0.00000000    0.00000000   -0.06976924

     Total force =     0.126704     Total SCF correction =     0.000985


     Computing stress (Cartesian axis) and pressure


     negative rho (up, down):  6.729E-01 0.000E+00
          total   stress  (Ry/bohr**3)                   (kbar)     P=      -35.00
  -0.00030353   0.00000000   0.00000000          -44.65        0.00        0.00
   0.00000000  -0.00030353  -0.00000000            0.00      -44.65       -0.00
   0.00000000  -0.00000000  -0.00010677            0.00       -0.00      -15.71

     Energy error            =      2.2E-04 Ry
     Gradient error          =      1.0E-01 Ry/Bohr

     number of scf cycles    =   7
     number of bfgs steps    =   5

     energy             old  =    -178.3861506346 Ry
     energy             new  =    -178.3863706334 Ry

     CASE: energy            _new < energy            _old

     new trust radius        =       0.0517464870 bohr
     new conv_thr            =       0.0000000022 Ry


ATOMIC_POSITIONS (angstrom)
V                0.0000000000        0.0000000000        0.0193789979
C                2.2036289100        1.2722657500        0.9846961700
Se               2.2036289100        1.2722657500       -1.0040751678



     Writing config-only to output data dir ./tmp/candidate_02_VCSe.save/ :
     XML data file
     NEW-OLD atomic charge density approx. for the potential

     Check: negative core charge=   -0.000005

     negative rho (up, down):  6.696E-01 0.000E+00

     total cpu time spent up to now is      974.5 secs

     per-process dynamical memory:   163.4 Mb

     Self-consistent Calculation

     iteration #  1     ecut=    35.00 Ry     beta= 0.35
     Davidson diagonalization with overlap
     ethr =  1.00E-06,  avg # of iterations =  8.0

     negative rho (up, down):  6.700E-01 0.000E+00

     total cpu time spent up to now is      985.7 secs

     total energy              =    -178.38581157 Ry
     estimated scf accuracy    <       0.00241435 Ry

     iteration #  2     ecut=    35.00 Ry     beta= 0.35
     Davidson diagonalization with overlap
     ethr =  1.05E-05,  avg # of iterations =  6.8

     negative rho (up, down):  6.696E-01 0.000E+00

     total cpu time spent up to now is      994.8 secs

     total energy              =    -178.38561582 Ry
     estimated scf accuracy    <       0.01937475 Ry

     iteration #  3     ecut=    35.00 Ry     beta= 0.35
     Davidson diagonalization with overlap
     ethr =  1.05E-05,  avg # of iterations =  3.5

     negative rho (up, down):  6.689E-01 0.000E+00

     total cpu time spent up to now is     1001.2 secs

     total energy              =    -178.38722228 Ry
     estimated scf accuracy    <       0.00123934 Ry

     iteration #  4     ecut=    35.00 Ry     beta= 0.35
     Davidson diagonalization with overlap
     ethr =  5.39E-06,  avg # of iterations =  5.2

     negative rho (up, down):  6.670E-01 0.000E+00

     total cpu time spent up to now is     1008.6 secs

     total energy              =    -178.38752930 Ry
     estimated scf accuracy    <       0.00007631 Ry

     iteration #  5     ecut=    35.00 Ry     beta= 0.35
     Davidson diagonalization with overlap
     ethr =  3.32E-07,  avg # of iterations =  4.0

     negative rho (up, down):  6.659E-01 0.000E+00

     total cpu time spent up to now is     1015.5 secs

     total energy              =    -178.38760746 Ry
     estimated scf accuracy    <       0.00002828 Ry

     iteration #  6     ecut=    35.00 Ry     beta= 0.35
     Davidson diagonalization with overlap
     ethr =  1.23E-07,  avg # of iterations =  3.2

     negative rho (up, down):  6.650E-01 0.000E+00

     total cpu time spent up to now is     1021.1 secs

     total energy              =    -178.38764660 Ry
     estimated scf accuracy    <       0.00001021 Ry

     iteration #  7     ecut=    35.00 Ry     beta= 0.35
     Davidson diagonalization with overlap
     ethr =  4.44E-08,  avg # of iterations =  2.0

     negative rho (up, down):  6.643E-01 0.000E+00

     total cpu time spent up to now is     1026.1 secs

     total energy              =    -178.38766949 Ry
     estimated scf accuracy    <       0.00000232 Ry

     iteration #  8     ecut=    35.00 Ry     beta= 0.35
     Davidson diagonalization with overlap
     ethr =  1.01E-08,  avg # of iterations =  2.2

     negative rho (up, down):  6.638E-01 0.000E+00

     total cpu time spent up to now is     1031.4 secs

     total energy              =    -178.38768474 Ry
     estimated scf accuracy    <       0.00000010 Ry

     iteration #  9     ecut=    35.00 Ry     beta= 0.35
     Davidson diagonalization with overlap
     ethr =  4.32E-10,  avg # of iterations =  5.0

     negative rho (up, down):  6.635E-01 0.000E+00

     total cpu time spent up to now is     1039.4 secs

     total energy              =    -178.38769428 Ry
     estimated scf accuracy    <       0.00000006 Ry

     iteration # 10     ecut=    35.00 Ry     beta= 0.35
     Davidson diagonalization with overlap
     ethr =  2.74E-10,  avg # of iterations =  4.0

     negative rho (up, down):  6.633E-01 0.000E+00

     total cpu time spent up to now is     1046.0 secs

     total energy              =    -178.38770058 Ry
[...]

     total cpu time spent up to now is     5786.2 secs

     total energy              =    -178.38728388 Ry
     estimated scf accuracy    <       0.00001677 Ry

     iteration #  3     ecut=    35.00 Ry     beta= 0.35
     Davidson diagonalization with overlap
     ethr =  7.29E-08,  avg # of iterations =  5.0

     negative rho (up, down):  6.640E-01 0.000E+00

     total cpu time spent up to now is     5802.4 secs

     total energy              =    -178.38733911 Ry
     estimated scf accuracy    <       0.00000727 Ry

     iteration #  4     ecut=    35.00 Ry     beta= 0.35
     Davidson diagonalization with overlap
     ethr =  3.16E-08,  avg # of iterations =  4.8

     negative rho (up, down):  6.654E-01 0.000E+00

     total cpu time spent up to now is     5830.5 secs

     total energy              =    -178.38736164 Ry
     estimated scf accuracy    <       0.00001292 Ry

     iteration #  5     ecut=    35.00 Ry     beta= 0.35
     Davidson diagonalization with overlap
     ethr =  3.16E-08,  avg # of iterations =  4.0

     negative rho (up, down):  6.667E-01 0.000E+00

     total cpu time spent up to now is     5843.4 secs

     total energy              =    -178.38736738 Ry
     estimated scf accuracy    <       0.00001531 Ry

     iteration #  6     ecut=    35.00 Ry     beta= 0.35
     Davidson diagonalization with overlap
     ethr =  3.16E-08,  avg # of iterations =  2.0

     negative rho (up, down):  6.675E-01 0.000E+00

     total cpu time spent up to now is     5847.8 secs

     total energy              =    -178.38736644 Ry
     estimated scf accuracy    <       0.00000140 Ry

     iteration #  7     ecut=    35.00 Ry     beta= 0.35
     Davidson diagonalization with overlap
     ethr =  6.10E-09,  avg # of iterations =  3.5

     negative rho (up, down):  6.681E-01 0.000E+00

     total cpu time spent up to now is     5853.6 secs

     total energy              =    -178.38736521 Ry
     estimated scf accuracy    <       0.00000014 Ry

     iteration #  8     ecut=    35.00 Ry     beta= 0.35
     Davidson diagonalization with overlap
     ethr =  6.12E-10,  avg # of iterations =  4.0

     negative rho (up, down):  6.684E-01 0.000E+00

     total cpu time spent up to now is     5860.0 secs

     total energy              =    -178.38736273 Ry
     estimated scf accuracy    <       0.00000006 Ry

     iteration #  9     ecut=    35.00 Ry     beta= 0.35
     Davidson diagonalization with overlap
     ethr =  2.42E-10,  avg # of iterations =  3.8

     negative rho (up, down):  6.687E-01 0.000E+00

     total cpu time spent up to now is     5867.1 secs

     total energy              =    -178.38736081 Ry
     estimated scf accuracy    <       0.00000006 Ry

     iteration # 10     ecut=    35.00 Ry     beta= 0.35
     Davidson diagonalization with overlap
     ethr =  2.42E-10,  avg # of iterations =  4.2

     negative rho (up, down):  6.689E-01 0.000E+00

     total cpu time spent up to now is     5873.9 secs

     total energy              =    -178.38735858 Ry
     estimated scf accuracy    <       0.00000002 Ry

     iteration # 11     ecut=    35.00 Ry     beta= 0.35
     Davidson diagonalization with overlap
     ethr =  9.83E-11,  avg # of iterations =  2.0

     negative rho (up, down):  6.691E-01 0.000E+00

     total cpu time spent up to now is     5878.2 secs

     total energy              =    -178.38735702 Ry
     estimated scf accuracy    <          3.3E-09 Ry

     iteration # 12     ecut=    35.00 Ry     beta= 0.35
     Davidson diagonalization with overlap
     ethr =  1.44E-11,  avg # of iterations =  4.2

     negative rho (up, down):  6.692E-01 0.000E+00

     total cpu time spent up to now is     5885.2 secs

     total energy              =    -178.38735592 Ry
     estimated scf accuracy    <          3.4E-09 Ry

     iteration # 13     ecut=    35.00 Ry     beta= 0.35
     Davidson diagonalization with overlap
     ethr =  1.44E-11,  avg # of iterations =  3.0

     negative rho (up, down):  6.693E-01 0.000E+00

     total cpu time spent up to now is     5892.5 secs

     End of self-consistent calculation

          k = 0.0000 0.0000 0.0000 (  7151 PWs)   bands (ev):

   -70.0843 -44.3326 -44.3326 -43.0179 -20.3061 -14.4764  -9.4419  -9.4419
    -8.9386  -7.5877  -6.1229  -6.1229  -4.5556  -4.5556  -4.5360  -4.2954

          k = 0.0000 0.2887 0.0000 (  7108 PWs)   bands (ev):

   -70.0842 -44.3286 -44.3273 -43.0159 -20.1974 -14.3925 -10.3476  -9.3721
    -8.7063  -7.2282  -6.3872  -6.3516  -5.3757  -5.0629  -4.4381  -3.5824

          k = 0.0000-0.5774 0.0000 (  7146 PWs)   bands (ev):

   -70.0843 -44.3337 -44.3278 -43.0174 -20.0841 -14.3046 -10.9265  -9.3023
    -8.3809  -7.5483  -6.6133  -6.4867  -5.8922  -5.5306  -4.4844  -3.2236

          k = 0.2500 0.4330 0.0000 (  7144 PWs)   bands (ev):

   -70.0843 -44.3319 -44.3296 -43.0168 -20.0849 -14.3045 -10.7059  -9.7064
    -8.3885  -7.3609  -6.8260  -6.3010  -5.9636  -5.4396  -4.6698  -3.2709

     the Fermi energy is    -6.2886 ev

!    total energy              =    -178.38735352 Ry
     estimated scf accuracy    <          3.6E-10 Ry
     smearing contrib. (-TS)   =      -0.00322603 Ry
     internal energy E=F+TS    =    -178.38412749 Ry

     The total energy is F=E-TS. E is the sum of the following terms:
     one-electron contribution =    -838.17068607 Ry
     hartree contribution      =     414.99469660 Ry
     xc contribution           =     -31.30474873 Ry
     ewald contribution        =     276.09661071 Ry

     convergence has been achieved in  13 iterations

     negative rho (up, down):  6.693E-01 0.000E+00

     Forces acting on atoms (cartesian axes, Ry/au):

     atom    1 type  3   force =     0.00000000    0.00000000    0.06887730
     atom    2 type  1   force =     0.00000000   -0.00000000   -0.03369218
     atom    3 type  2   force =     0.00000000   -0.00000000   -0.03518512

     Total force =     0.084364     Total SCF correction =     0.000024


     Computing stress (Cartesian axis) and pressure


     negative rho (up, down):  6.693E-01 0.000E+00
          total   stress  (Ry/bohr**3)                   (kbar)     P=      -36.82
  -0.00030849   0.00000000   0.00000000          -45.38        0.00        0.00
   0.00000000  -0.00030849   0.00000000            0.00      -45.38        0.00
   0.00000000   0.00000000  -0.00013395            0.00        0.00      -19.70

     Energy error            =      3.7E-04 Ry
     Gradient error          =      6.9E-02 Ry/Bohr

     number of scf cycles    =  49
     number of bfgs steps    =   8

     energy             old  =    -178.3877284327 Ry
     energy             new  =    -178.3873535196 Ry

     CASE: energy            _new > energy            _old

     new trust radius        =       0.0002573501 bohr
     new conv_thr            =       0.0000000010 Ry


ATOMIC_POSITIONS (angstrom)
V                0.0000000000        0.0000000000        0.0190302203
C                2.2036289100        1.2722657500        0.9811616596
Se               2.2036289100        1.2722657500       -1.0001918799



     Writing config-only to output data dir ./tmp/candidate_02_VCSe.save/ :
     XML data file
     NEW-OLD atomic charge density approx. for the potential

     Check: negative core charge=   -0.000005

     negative rho (up, down):  6.686E-01 0.000E+00

     total cpu time spent up to now is     5901.4 secs

     per-process dynamical memory:   163.4 Mb

     Self-consistent Calculation

     iteration #  1     ecut=    35.00 Ry     beta= 0.35
     Davidson diagonalization with overlap
     ethr =  1.00E-06,  avg # of iterations =  6.0

     negative rho (up, down):  6.697E-01 0.000E+00

     total cpu time spent up to now is     5912.1 secs

     total energy              =    -178.38722773 Ry
     estimated scf accuracy    <       0.00003428 Ry

     iteration #  2     ecut=    35.00 Ry     beta= 0.35
     Davidson diagonalization with overlap
     ethr =  1.49E-07,  avg # of iterations =  5.0

     negative rho (up, down):  6.680E-01 0.000E+00

     total cpu time spent up to now is     5924.3 secs

     total energy              =    -178.38746385 Ry
     estimated scf accuracy    <       0.00002012 Ry

     iteration #  3     ecut=    35.00 Ry     beta= 0.35
     Davidson diagonalization with overlap
     ethr =  8.75E-08,  avg # of iterations =  3.2

     negative rho (up, down):  6.666E-01 0.000E+00

     total cpu time spent up to now is     5930.0 secs

     total energy              =    -178.38757094 Ry
     estimated scf accuracy    <       0.00001173 Ry

     iteration #  4     ecut=    35.00 Ry     beta= 0.35
     Davidson diagonalization with overlap
     ethr =  5.10E-08,  avg # of iterations =  4.2

     negative rho (up, down):  6.657E-01 0.000E+00

     total cpu time spent up to now is     5945.6 secs

     total energy              =    -178.38762801 Ry
     estimated scf accuracy    <       0.00004916 Ry

     iteration #  5     ecut=    35.00 Ry     beta= 0.35
     Davidson diagonalization with overlap
     ethr =  5.10E-08,  avg # of iterations =  3.8

     negative rho (up, down):  6.649E-01 0.000E+00

     total cpu time spent up to now is     5952.2 secs

     total energy              =    -178.38766290 Ry
     estimated scf accuracy    <       0.00000385 Ry

     iteration #  6     ecut=    35.00 Ry     beta= 0.35
     Davidson diagonalization with overlap
     ethr =  1.67E-08,  avg # of iterations =  2.8

     negative rho (up, down):  6.644E-01 0.000E+00

     total cpu time spent up to now is     5958.0 secs

     total energy              =    -178.38768334 Ry
     estimated scf accuracy    <       0.00000203 Ry

     iteration #  7     ecut=    35.00 Ry     beta= 0.35
     Davidson diagonalization with overlap
     ethr =  8.82E-09,  avg # of iterations =  2.0

     negative rho (up, down):  6.640E-01 0.000E+00

     total cpu time spent up to now is     5963.8 secs

     total energy              =    -178.38769667 Ry
     estimated scf accuracy    <       0.00000020 Ry

     iteration #  8     ecut=    35.00 Ry     beta= 0.35
     Davidson diagonalization with overlap
     ethr =  8.53E-10,  avg # of iterations =  4.8

     negative rho (up, down):  6.637E-01 0.000E+00

     total cpu time spent up to now is     5972.5 secs

     total energy              =    -178.38770480 Ry
     estimated scf accuracy    <       0.00000009 Ry

     iteration #  9     ecut=    35.00 Ry     beta= 0.35
     Davidson diagonalization with overlap
     ethr =  3.99E-10,  avg # of iterations =  2.0

     negative rho (up, down):  6.635E-01 0.000E+00

     total cpu time spent up to now is     5977.3 secs

     total energy              =    -178.38771039 Ry
     estimated scf accuracy    <          5.6E-09 Ry

     iteration # 10     ecut=    35.00 Ry     beta= 0.35
     Davidson diagonalization with overlap
     ethr =  2.45E-11,  avg # of iterations =  5.2

     negative rho (up, down):  6.634E-01 0.000E+00

     total cpu time spent up to now is     5987.1 secs

     total energy              =    -178.38771403 Ry
     estimated scf accuracy    <          6.1E-09 Ry

     iteration # 11     ecut=    35.00 Ry     beta= 0.35
     Davidson diagonalization with overlap
     ethr =  2.45E-11,  avg # of iterations =  4.0

     negative rho (up, down):  6.633E-01 0.000E+00

     total cpu time spent up to now is     5994.3 secs

     total energy              =    -178.38771651 Ry
     estimated scf accuracy    <          8.6E-09 Ry

     iteration # 12     ecut=    35.00 Ry     beta= 0.35
     Davidson diagonalization with overlap
     ethr =  2.45E-11,  avg # of iterations =  4.8

     negative rho (up, down):  6.633E-01 0.000E+00

     total cpu time spent up to now is     6003.1 secs

     total energy              =    -178.38771773 Ry
     estimated scf accuracy    <       0.00000004 Ry

     iteration # 13     ecut=    35.00 Ry     beta= 0.35
     Davidson diagonalization with overlap
     ethr =  2.45E-11,  avg # of iterations =  2.0

     negative rho (up, down):  6.633E-01 0.000E+00

     total cpu time spent up to now is     6007.6 secs

     total energy              =    -178.38771869 Ry
     estimated scf accuracy    <       0.00000001 Ry

     iteration # 14     ecut=    35.00 Ry     beta= 0.35
     Davidson diagonalization with overlap
     ethr =  2.45E-11,  avg # of iterations =  2.0

     negative rho (up, down):  6.633E-01 0.000E+00

     total cpu time spent up to now is     6012.9 secs

     total energy              =    -178.38771940 Ry
     estimated scf accuracy    <          8.9E-09 Ry

     iteration # 15     ecut=    35.00 Ry     beta= 0.35
     Davidson diagonalization with overlap
     ethr =  2.45E-11,  avg # of iterations =  3.5

     negative rho (up, down):  6.632E-01 0.000E+00

     total cpu time spent up to now is     6019.2 secs

     total energy              =    -178.38771977 Ry
     estimated scf accuracy    <       0.00000001 Ry

     iteration # 16     ecut=    35.00 Ry     beta= 0.35
     Davidson diagonalization with overlap
     ethr =  2.45E-11,  avg # of iterations =  2.2

     negative rho (up, down):  6.632E-01 0.000E+00

     total cpu time spent up to now is     6024.3 secs

     total energy              =    -178.38771991 Ry
     estimated scf accuracy    <          6.3E-09 Ry

     iteration # 17     ecut=    35.00 Ry     beta= 0.35
     Davidson diagonalization with overlap
     ethr =  2.45E-11,  avg # of iterations =  3.5

     negative rho (up, down):  6.632E-01 0.000E+00

     total cpu time spent up to now is     6031.3 secs

     total energy              =    -178.38772029 Ry
     estimated scf accuracy    <          1.6E-09 Ry

     iteration # 18     ecut=    35.00 Ry     beta= 0.35
     Davidson diagonalization with overlap
     ethr =  6.84E-12,  avg # of iterations =  3.0

     negative rho (up, down):  6.632E-01 0.000E+00

     total cpu time spent up to now is     6038.6 secs

     End of self-consistent calculation

          k = 0.0000 0.0000 0.0000 (  7151 PWs)   bands (ev):

   -70.0804 -44.3278 -44.3278 -43.0154 -20.2891 -14.4648  -9.4245  -9.4245
    -8.9149  -7.5385  -6.1150  -6.1150  -4.5450  -4.5450  -4.5177  -4.2792

          k = 0.0000 0.2887 0.0000 (  7108 PWs)   bands (ev):

   -70.0803 -44.3238 -44.3225 -43.0134 -20.1808 -14.3808 -10.3224  -9.3549
    -8.6866  -7.1869  -6.3734  -6.3433  -5.3618  -5.0507  -4.4292  -3.5680

          k = 0.0000-0.5774 0.0000 (  7146 PWs)   bands (ev):

   -70.0804 -44.3289 -44.3230 -43.0149 -20.0679 -14.2928 -10.8991  -9.2854
    -8.3691  -7.5067  -6.5933  -6.4778  -5.8772  -5.5178  -4.4774  -3.2187

          k = 0.2500 0.4330 0.0000 (  7144 PWs)   bands (ev):

   -70.0804 -44.3271 -44.3248 -43.0144 -20.0688 -14.2927 -10.6776  -9.6879
    -8.3757  -7.3216  -6.8132  -6.2871  -5.9460  -5.4276  -4.6633  -3.2663

     the Fermi energy is    -6.2770 ev

!    total energy              =    -178.38772081 Ry
     estimated scf accuracy    <          3.0E-10 Ry
     smearing contrib. (-TS)   =      -0.00323282 Ry
     internal energy E=F+TS    =    -178.38448799 Ry

     The total energy is F=E-TS. E is the sum of the following terms:
     one-electron contribution =    -838.14428828 Ry
     hartree contribution      =     414.98512702 Ry
     xc contribution           =     -31.29434136 Ry
     ewald contribution        =     276.06901463 Ry

     convergence has been achieved in  18 iterations

     negative rho (up, down):  6.632E-01 0.000E+00

     Forces acting on atoms (cartesian axes, Ry/au):

     atom    1 type  3   force =     0.00000000    0.00000000   -0.00200021
     atom    2 type  1   force =     0.00000000   -0.00000000    0.00100092
     atom    3 type  2   force =     0.00000000   -0.00000000    0.00099929

     Total force =     0.002450     Total SCF correction =     0.000098


     Computing stress (Cartesian axis) and pressure


     negative rho (up, down):  6.632E-01 0.000E+00
          total   stress  (Ry/bohr**3)                   (kbar)     P=      -36.50
  -0.00030999   0.00000000   0.00000000          -45.60        0.00        0.00
   0.00000000  -0.00030999  -0.00000000            0.00      -45.60       -0.00
   0.00000000  -0.00000000  -0.00012444            0.00       -0.00      -18.31

     Energy error            =      7.6E-06 Ry
     Gradient error          =      2.0E-03 Ry/Bohr

     number of scf cycles    =  50
     number of bfgs steps    =   8

     energy             old  =    -178.3877284327 Ry
     energy             new  =    -178.3877208129 Ry

     CASE: energy            _new > energy            _old

     new trust radius        =       0.0000269346 bohr

     trust_radius < trust_radius_min

     resetting bfgs history


     The maximum number of steps has been reached.

     End of BFGS Geometry Optimization

ATOMIC_POSITIONS (angstrom)
V                0.0000000000        0.0000000000        0.0164011000
C                2.2036289100        1.2722657500        0.9824756538
Se               2.2036289100        1.2722657500       -0.9988767538



     Writing config-only to output data dir ./tmp/candidate_02_VCSe.save/ :
     XML data file
     NEW-OLD atomic charge density approx. for the potential

     Check: negative core charge=   -0.000005

     negative rho (up, down):  6.632E-01 0.000E+00

     Writing all to output data dir ./tmp/candidate_02_VCSe.save/ :
     XML data file, charge density, pseudopotentials, collected wavefunctions

     init_run     :     35.98s CPU      4.13s WALL (       1 calls)
     electrons    :  77105.35s CPU   5616.62s WALL (      50 calls)
     update_pot   :    107.45s CPU      7.10s WALL (      50 calls)
     forces       :    411.59s CPU     57.93s WALL (      50 calls)
     stress       :   1274.56s CPU    325.76s WALL (      50 calls)

     Called by init_run:
     wfcinit      :     19.53s CPU      1.32s WALL (       1 calls)
     potinit      :      5.50s CPU      0.50s WALL (       1 calls)
     hinit0       :      9.37s CPU      1.39s WALL (       1 calls)

     Called by electrons:
     c_bands      :  62289.14s CPU   3914.54s WALL (     849 calls)
     sum_band     :  12264.83s CPU   1054.73s WALL (     849 calls)
     v_of_rho     :   1005.43s CPU     64.00s WALL (     899 calls)
     newd         :   1355.38s CPU    600.06s WALL (     899 calls)
     mix_rho      :    202.14s CPU     13.13s WALL (     849 calls)

     Called by c_bands:
     init_us_2    :    411.57s CPU     29.93s WALL (    7196 calls)
     cegterg      :  61723.30s CPU   3870.52s WALL (    3396 calls)

     Called by *egterg:
     cdiaghg      :    403.58s CPU     25.23s WALL (   15440 calls)
     h_psi        :  44222.76s CPU   2771.68s WALL (   15644 calls)
     s_psi        :   2124.44s CPU    132.26s WALL (   15644 calls)
     g_psi        :     27.76s CPU      5.40s WALL (   12244 calls)

     Called by h_psi:
     h_psi:calbec :    987.17s CPU     54.73s WALL (   15644 calls)
     vloc_psi     :  37712.92s CPU   2388.18s WALL (   15644 calls)
                                        0.00s GPU  (   15644 calls)
     add_vuspsi   :   2450.92s CPU    142.04s WALL (   15644 calls)

     General routines
     calbec       :   1233.67s CPU     72.11s WALL (   22440 calls)
     fft          :    530.89s CPU     35.72s WALL (   12888 calls)
     ffts         :     85.89s CPU      4.81s WALL (    1748 calls)
     fftw         :  39214.15s CPU   2481.16s WALL (  337208 calls)
     interpolate  :     89.50s CPU      5.71s WALL (     899 calls)
     davcio       :      0.11s CPU      0.00s WALL (       4 calls)

     Parallel routines

     PWSCF        :     21h57m CPU      1h40m WALL


   This run was terminated on:  18:57:57  10May2026            

=------------------------------------------------------------------------------=
   JOB DONE.
=------------------------------------------------------------------------------=
