
     Program PWSCF v.7.5 starts on 10May2026 at 12:39:39 

     This program is part of the open-source Quantum ESPRESSO suite
     for quantum simulation of materials; please cite
         "P. Giannozzi et al., J. Phys.:Condens. Matter 21 395502 (2009);
         "P. Giannozzi et al., J. Phys.:Condens. Matter 29 465901 (2017);
         "P. Giannozzi et al., J. Chem. Phys. 152 154105 (2020);
          URL http://www.quantum-espresso.org", 
     in publications or presentations arising from this work. More details at
     http://www.quantum-espresso.org/quote

     Parallel version (MPI & OpenMP), running on       1 processor cores
     Number of MPI processes:                 1
     Threads/MPI process:                     1

     MPI processes distributed on     1 nodes
     4861 MiB available memory on the printing compute node when the environment starts

     Reading input from candidate_01_NbNSe/02_scf.in
Warning: card &CELL ignored
Warning: card   CELL_DOFREE = '2DXY', ignored

     Current dimensions of program PWSCF are:
     Max number of different atomic species (ntypx) = 10
     Max number of k-points (npk) =  40000
     Max angular momentum in pseudopotentials (lmaxx) =  4
     file Nb.pbe-spn-rrkjus_psl.1.0.0.UPF: wavefunction(s)  4S 4P renormalized
     Message from routine setup:
     using ibrav=0 with symmetry is DISCOURAGED, use correct ibrav instead

     Subspace diagonalization in iterative solution of the eigenvalue problem:
     a serial algorithm will be used


     G-vector sticks info
     --------------------
     sticks:   dense  smooth     PW     G-vecs:    dense   smooth      PW
     Sum         871     433    121               105739    37473    5961

     Using Slab Decomposition



     bravais-lattice index     =            0
     lattice parameter (alat)  =       6.7410  a.u.
     unit-cell volume          =    1338.5944 (a.u.)^3
     number of atoms/cell      =            3
     number of atomic types    =            3
     number of electrons       =        24.00
     number of Kohn-Sham states=           16
     kinetic-energy cutoff     =      35.0000  Ry
     charge density cutoff     =     280.0000  Ry
     scf convergence threshold =      1.0E-07
     mixing beta               =       0.3500
     number of iterations used =            8  plain     mixing
     Exchange-correlation= PBE
                           (   1   4   3   4   0   0   0)

     celldm(1)=   6.740987  celldm(2)=   0.000000  celldm(3)=   0.000000
     celldm(4)=   0.000000  celldm(5)=   0.000000  celldm(6)=   0.000000

     crystal axes: (cart. coord. in units of alat)
               a(1) = (   1.000000   0.000000   0.000000 )  
               a(2) = (  -0.500000   0.866025   0.000000 )  
               a(3) = (   0.000000   0.000000   5.046007 )  

     reciprocal axes: (cart. coord. in units 2 pi/alat)
               b(1) = (  1.000000  0.577350 -0.000000 )  
               b(2) = (  0.000000  1.154701  0.000000 )  
               b(3) = (  0.000000 -0.000000  0.198176 )  


     PseudoPot. # 1 for N  read from file:
     ./pseudos/N.pbe-n-rrkjus_psl.1.0.0.UPF
     MD5 check sum: ada94e3ed05223de5319d0572dc76806
     Pseudo is Ultrasoft + core correction, Zval =  5.0
     Generated using &quot;atomic&quot; code by A. Dal Corso  v.6.3MaX
     Using radial grid of 1085 points,  4 beta functions with: 
                l(1) =   0
                l(2) =   0
                l(3) =   1
                l(4) =   1
     Q(r) pseudized with 0 coefficients 


     PseudoPot. # 2 for Nb read from file:
     ./pseudos/Nb.pbe-spn-rrkjus_psl.1.0.0.UPF
     MD5 check sum: 6ee677a9f002bd3e3657f443f129faad
     Pseudo is Ultrasoft + core correction, Zval = 13.0
     Generated using &quot;atomic&quot; code by A. Dal Corso  v.6.2.2
     Using radial grid of 1227 points,  6 beta functions with: 
                l(1) =   0
                l(2) =   0
                l(3) =   1
                l(4) =   1
                l(5) =   2
                l(6) =   2
     Q(r) pseudized with 0 coefficients 


     PseudoPot. # 3 for Se read from file:
     ./pseudos/Se.pbe-n-rrkjus_psl.1.0.0.UPF
     MD5 check sum: 8e2a6847b5cb9faee9497ebb573e71ea
     Pseudo is Ultrasoft + core correction, Zval =  6.0
     Generated using &quot;atomic&quot; code by A. Dal Corso  v.6.3
     Using radial grid of 1211 points,  4 beta functions with: 
                l(1) =   0
                l(2) =   0
                l(3) =   1
                l(4) =   1
     Q(r) pseudized with 0 coefficients 


     atomic species   valence    mass     pseudopotential
     N                 5.00    14.00700     N ( 1.00)
     Nb               13.00    92.90600     Nb( 1.00)
     Se                6.00    78.97100     Se( 1.00)

      6 Sym. Ops. (no inversion) found



   Cartesian axes

     site n.     atom                  positions (alat units)
         1        Nb     tau(   1) = (   0.0000000   0.0000000   0.0000000  )
         2        Se     tau(   2) = (   0.5000000   0.2886751   0.3306303  )
         3        N      tau(   3) = (   0.5000000   0.2886751  -0.3306303  )

     number of k points=     4  Methfessel-Paxton smearing, width (Ry)=  0.0200
                       cart. coord. in units 2pi/alat
        k(    1) = (   0.0000000   0.0000000   0.0000000), wk =   0.1250000
        k(    2) = (   0.0000000   0.2886751   0.0000000), wk =   0.7500000
        k(    3) = (   0.0000000  -0.5773503   0.0000000), wk =   0.3750000
        k(    4) = (   0.2500000   0.4330127   0.0000000), wk =   0.7500000

     Dense  grid:   105739 G-vectors     FFT dimensions: (  36,  36, 192)

     Smooth grid:    37473 G-vectors     FFT dimensions: (  25,  25, 135)

     Estimated max dynamical RAM per process >     403.46 MB
 ----2D----2D----2D----2D----2D----2D----2D----2D----2D----2D----2D----2D
  The code is running with the 2D cutoff
  Please refer to:
  Sohier, T., Calandra, M., & Mauri, F. (2017), 
  Density functional perturbation theory for gated two-dimensional heterostructures:
  Theoretical developments and application to flexural phonons in graphene.
  Physical Review B, 96(7), 75448. https://doi.org/10.1103/PhysRevB.96.075448
 ----2D----2D----2D----2D----2D----2D----2D----2D----2D----2D----2D----2D

     Initial potential from superposition of free atoms

     starting charge      23.9986, renormalised to      24.0000

     negative rho (up, down):  2.216E-04 0.000E+00
     Starting wfcs are   21 randomized atomic wfcs

     total cpu time spent up to now is        2.4 secs

     per-process dynamical memory:    80.1 Mb

     Self-consistent Calculation

     iteration #  1     ecut=    35.00 Ry     beta= 0.35
     Davidson diagonalization with overlap
     ethr =  1.00E-02,  avg # of iterations =  2.0

     negative rho (up, down):  1.604E-04 0.000E+00

     total cpu time spent up to now is        3.8 secs

     total energy              =    -158.53499976 Ry
     estimated scf accuracy    <       1.27184846 Ry

     iteration #  2     ecut=    35.00 Ry     beta= 0.35
     Davidson diagonalization with overlap
     ethr =  5.30E-03,  avg # of iterations =  4.5

     negative rho (up, down):  8.726E-04 0.000E+00

     total cpu time spent up to now is        5.2 secs

     total energy              =    -158.36193129 Ry
     estimated scf accuracy    <      10.63710609 Ry

     iteration #  3     ecut=    35.00 Ry     beta= 0.35
     Davidson diagonalization with overlap
     ethr =  5.30E-03,  avg # of iterations =  3.5

     negative rho (up, down):  5.915E-04 0.000E+00

     total cpu time spent up to now is        6.7 secs

     total energy              =    -159.14606517 Ry
     estimated scf accuracy    <       0.06552880 Ry

     iteration #  4     ecut=    35.00 Ry     beta= 0.35
     Davidson diagonalization with overlap
     ethr =  2.73E-04,  avg # of iterations =  4.5

     negative rho (up, down):  3.696E-04 0.000E+00

     total cpu time spent up to now is        8.2 secs

     total energy              =    -159.16023332 Ry
     estimated scf accuracy    <       0.02890379 Ry

     iteration #  5     ecut=    35.00 Ry     beta= 0.35
     Davidson diagonalization with overlap
     ethr =  1.20E-04,  avg # of iterations =  2.0

     negative rho (up, down):  3.242E-04 0.000E+00

     total cpu time spent up to now is        9.5 secs

     total energy              =    -159.16574425 Ry
     estimated scf accuracy    <       0.02408617 Ry

     iteration #  6     ecut=    35.00 Ry     beta= 0.35
     Davidson diagonalization with overlap
     ethr =  1.00E-04,  avg # of iterations =  1.0

     negative rho (up, down):  3.062E-04 0.000E+00

     total cpu time spent up to now is       11.1 secs

     total energy              =    -159.16420930 Ry
     estimated scf accuracy    <       0.01029827 Ry

     iteration #  7     ecut=    35.00 Ry     beta= 0.35
     Davidson diagonalization with overlap
     ethr =  4.29E-05,  avg # of iterations =  2.0

     negative rho (up, down):  2.371E-04 0.000E+00

     total cpu time spent up to now is       12.5 secs

     total energy              =    -159.16534913 Ry
     estimated scf accuracy    <       0.00100747 Ry

     iteration #  8     ecut=    35.00 Ry     beta= 0.35
     Davidson diagonalization with overlap
     ethr =  4.20E-06,  avg # of iterations =  2.0

     negative rho (up, down):  2.050E-04 0.000E+00

     total cpu time spent up to now is       14.0 secs

     total energy              =    -159.16553888 Ry
     estimated scf accuracy    <       0.00002351 Ry

     iteration #  9     ecut=    35.00 Ry     beta= 0.35
     Davidson diagonalization with overlap
     ethr =  9.80E-08,  avg # of iterations =  5.8

     negative rho (up, down):  1.939E-04 0.000E+00

     total cpu time spent up to now is       15.6 secs

     total energy              =    -159.16553874 Ry
     estimated scf accuracy    <       0.00008394 Ry

     iteration # 10     ecut=    35.00 Ry     beta= 0.35
     Davidson diagonalization with overlap
     ethr =  9.80E-08,  avg # of iterations =  3.2

     negative rho (up, down):  1.883E-04 0.000E+00

     total cpu time spent up to now is       17.0 secs

     total energy              =    -159.16555162 Ry
     estimated scf accuracy    <       0.00002408 Ry

     iteration # 11     ecut=    35.00 Ry     beta= 0.35
     Davidson diagonalization with overlap
     ethr =  9.80E-08,  avg # of iterations =  1.0

     negative rho (up, down):  1.871E-04 0.000E+00

     total cpu time spent up to now is       18.5 secs

     total energy              =    -159.16555171 Ry
     estimated scf accuracy    <       0.00000692 Ry

     iteration # 12     ecut=    35.00 Ry     beta= 0.35
     Davidson diagonalization with overlap
     ethr =  2.88E-08,  avg # of iterations =  2.0

     negative rho (up, down):  1.867E-04 0.000E+00

     total cpu time spent up to now is       19.7 secs

     total energy              =    -159.16555222 Ry
     estimated scf accuracy    <       0.00000031 Ry

     iteration # 13     ecut=    35.00 Ry     beta= 0.35
     Davidson diagonalization with overlap
     ethr =  1.28E-09,  avg # of iterations =  5.0

     negative rho (up, down):  1.867E-04 0.000E+00

     total cpu time spent up to now is       20.3 secs

     total energy              =    -159.16555236 Ry
     estimated scf accuracy    <       0.00000015 Ry

     iteration # 14     ecut=    35.00 Ry     beta= 0.35
     Davidson diagonalization with overlap
     ethr =  6.09E-10,  avg # of iterations =  2.0

     negative rho (up, down):  1.869E-04 0.000E+00

     total cpu time spent up to now is       21.9 secs

     End of self-consistent calculation

          k = 0.0000 0.0000 0.0000 (  4685 PWs)   bands (ev):

   -60.7651 -36.8980 -36.8462 -36.8462 -20.6503 -17.7179 -10.6397  -9.7420
    -9.7420  -7.4270  -7.4270  -5.2248  -3.5089  -3.0711  -3.0711  -1.8976

          k = 0.0000 0.2887 0.0000 (  4693 PWs)   bands (ev):

   -60.7563 -36.9802 -36.8737 -36.8706 -20.1811 -17.7537 -10.7842  -9.8408
    -9.2922  -7.8919  -7.8127  -5.0806  -4.8532  -2.9915  -2.8314  -2.0426

          k = 0.0000-0.5774 0.0000 (  4688 PWs)   bands (ev):

   -60.7476 -37.1055 -36.9011 -36.8482 -19.7002 -17.7891 -11.2002  -9.5189
    -9.2056  -8.0524  -7.4558  -5.4688  -5.1811  -3.7995  -3.4356  -1.5797

          k = 0.2500 0.4330 0.0000 (  4664 PWs)   bands (ev):

   -60.7474 -37.0647 -36.9431 -36.8476 -19.6985 -17.7773 -10.9106  -9.7588
    -9.3732  -8.1272  -7.2178  -5.8062  -5.3078  -4.1795  -2.6753  -1.7702

     the Fermi energy is    -5.2153 ev

!    total energy              =    -159.16555238 Ry
     estimated scf accuracy    <          6.7E-09 Ry
     smearing contrib. (-TS)   =      -0.00225141 Ry
     internal energy E=F+TS    =    -159.16330097 Ry

     The total energy is F=E-TS. E is the sum of the following terms:
     one-electron contribution =   -1218.74288959 Ry
     hartree contribution      =     605.73962145 Ry
     xc contribution           =     -30.54559058 Ry
     ewald contribution        =     484.38555775 Ry

     convergence has been achieved in  14 iterations

     negative rho (up, down):  1.869E-04 0.000E+00

     Forces acting on atoms (cartesian axes, Ry/au):

     atom    1 type  2   force =     0.00000000   -0.00000000   -0.30697651
     atom    2 type  3   force =     0.00000000    0.00000000    0.21121038
     atom    3 type  1   force =     0.00000000   -0.00000000    0.09576613

     Total force =     0.384728     Total SCF correction =     0.000408


     Computing stress (Cartesian axis) and pressure


     negative rho (up, down):  1.869E-04 0.000E+00
          total   stress  (Ry/bohr**3)                   (kbar)     P=        5.84
  -0.00000621  -0.00000000   0.00000000           -0.91       -0.00        0.00
  -0.00000000  -0.00000621  -0.00000000           -0.00       -0.91       -0.00
   0.00000000  -0.00000000   0.00013159            0.00       -0.00       19.36


     Writing all to output data dir ./tmp/candidate_01_NbNSe.save/ :
     XML data file, charge density, pseudopotentials, collected wavefunctions

     init_run     :      1.89s CPU      2.26s WALL (       1 calls)
     electrons    :     13.89s CPU     19.45s WALL (       1 calls)
     forces       :      0.48s CPU      0.66s WALL (       1 calls)
     stress       :      3.62s CPU      4.60s WALL (       1 calls)

     Called by init_run:
     wfcinit      :      0.22s CPU      0.22s WALL (       1 calls)
     potinit      :      0.25s CPU      0.27s WALL (       1 calls)
     hinit0       :      1.11s CPU      1.17s WALL (       1 calls)

     Called by electrons:
     c_bands      :      3.10s CPU      3.21s WALL (      14 calls)
     sum_band     :      5.53s CPU      8.80s WALL (      14 calls)
     v_of_rho     :      1.06s CPU      1.11s WALL (      15 calls)
     newd         :      4.30s CPU      6.73s WALL (      15 calls)
     mix_rho      :      0.13s CPU      0.14s WALL (      14 calls)

     Called by c_bands:
     init_us_2    :      0.18s CPU      0.19s WALL (     124 calls)
     cegterg      :      2.85s CPU      2.94s WALL (      56 calls)

     Called by *egterg:
     cdiaghg      :      0.06s CPU      0.06s WALL (     218 calls)
     h_psi        :      2.40s CPU      2.48s WALL (     222 calls)
     s_psi        :      0.09s CPU      0.10s WALL (     222 calls)
     g_psi        :      0.03s CPU      0.03s WALL (     162 calls)

     Called by h_psi:
     h_psi:calbec :      0.13s CPU      0.13s WALL (     222 calls)
     vloc_psi     :      2.15s CPU      2.22s WALL (     222 calls)
                                        0.00s GPU  (     222 calls)
     add_vuspsi   :      0.10s CPU      0.10s WALL (     222 calls)

     General routines
     calbec       :      0.22s CPU      0.22s WALL (     346 calls)
     fft          :      0.92s CPU      0.95s WALL (     218 calls)
     ffts         :      0.15s CPU      0.16s WALL (      29 calls)
     fftw         :      2.10s CPU      2.16s WALL (    5540 calls)
     interpolate  :      0.19s CPU      0.19s WALL (      15 calls)

     Parallel routines

     PWSCF        :     20.05s CPU     27.17s WALL


   This run was terminated on:  12:40: 6  10May2026            

=------------------------------------------------------------------------------=
   JOB DONE.
=------------------------------------------------------------------------------=
