
     Program PHONON v.7.5 starts on 10May2026 at 12:46:37 

     This program is part of the open-source Quantum ESPRESSO suite
     for quantum simulation of materials; please cite
         "P. Giannozzi et al., J. Phys.:Condens. Matter 21 395502 (2009);
         "P. Giannozzi et al., J. Phys.:Condens. Matter 29 465901 (2017);
         "P. Giannozzi et al., J. Chem. Phys. 152 154105 (2020);
          URL http://www.quantum-espresso.org", 
     in publications or presentations arising from this work. More details at
     http://www.quantum-espresso.org/quote

     Parallel version (MPI & OpenMP), running on       1 processor cores
     Number of MPI processes:                 1
     Threads/MPI process:                     1

     MPI processes distributed on     1 nodes
     7003 MiB available memory on the printing compute node when the environment starts

     Reading input from candidate_01_NbNSe/04_gamma_phonon.in
      Title line not specified: using 'default'.

     Reading xml data from directory:

     ./tmp/candidate_01_NbNSe.save/

     Subspace diagonalization in iterative solution of the eigenvalue problem:
     a serial algorithm will be used

     file Nb.pbe-spn-rrkjus_psl.1.0.0.UPF: wavefunction(s)  4S 4P renormalized

     IMPORTANT: XC functional enforced from input :
     Exchange-correlation= PBE
                           (   1   4   3   4   0   0   0)
     Any further DFT definition will be discarded
     Please, verify this is what you really want


     G-vector sticks info
     --------------------
     sticks:   dense  smooth     PW     G-vecs:    dense   smooth      PW
     Sum         871     433    121               105739    37473    5961

     Using Slab Decomposition

 ----2D----2D----2D----2D----2D----2D----2D----2D----2D----2D----2D----2D
  The code is running with the 2D cutoff
  Please refer to:
  Sohier, T., Calandra, M., & Mauri, F. (2017), 
  Density functional perturbation theory for gated two-dimensional heterostructures:
  Theoretical developments and application to flexural phonons in graphene.
  Physical Review B, 96(7), 75448. https://doi.org/10.1103/PhysRevB.96.075448
 ----2D----2D----2D----2D----2D----2D----2D----2D----2D----2D----2D----2D

     negative rho (up, down):  1.722E-04 0.000E+00
     Reading collected, re-writing distributed wavefunctions in ./tmp/

     Number and degeneracy of irreps per q-point
       N         xq(1)         xq(2)         xq(3)   N irreps
       1   0.000000000   0.000000000   0.000000000       6
        1   1   1   2   2   2

     Calculation of q =    0.0000000   0.0000000   0.0000000

     default                                                                    

     bravais-lattice index     =            0
     lattice parameter (alat)  =       6.7410  a.u.
     unit-cell volume          =    1338.5944 (a.u.)^3
     number of atoms/cell      =            3
     number of atomic types    =            3
     kinetic-energy cut-off    =      35.0000  Ry
     charge density cut-off    =     280.0000  Ry
     convergence threshold     =      1.0E-14
     beta                      =       0.7000
     number of iterations used =            4
     Exchange-correlation= PBE
                           (   1   4   3   4   0   0   0)


     celldm(1)=    6.74099  celldm(2)=    0.00000  celldm(3)=    0.00000
     celldm(4)=    0.00000  celldm(5)=    0.00000  celldm(6)=    0.00000

     crystal axes: (cart. coord. in units of alat)
               a(1) = (  1.0000  0.0000  0.0000 )  
               a(2) = ( -0.5000  0.8660  0.0000 )  
               a(3) = (  0.0000  0.0000  5.0460 )  

     reciprocal axes: (cart. coord. in units 2 pi/alat)
               b(1) = (  1.0000  0.5774 -0.0000 )  
               b(2) = (  0.0000  1.1547  0.0000 )  
               b(3) = (  0.0000 -0.0000  0.1982 )  


     Atoms inside the unit cell: 

     Cartesian axes

     site n.  atom      mass           positions (alat units)
        1  Nb     92.9060   tau(    1) = (    0.00000   -0.00000   -0.10026  )
        2  Se     78.9710   tau(    2) = (    0.50000    0.28868    0.40941  )
        3  N      14.0070   tau(    3) = (    0.50000    0.28868   -0.30914  )

     Computing dynamical matrix for 
                    q = (   0.0000000   0.0000000   0.0000000 )

      7 Sym.Ops. (with q -> -q+G )


     G cutoff =  322.2888  ( 105739 G-vectors)     FFT grid: ( 36, 36,192)
     G cutoff =  161.1444  (  37473 G-vectors)  smooth grid: ( 25, 25,135)

     number of k points=     4  Methfessel-Paxton smearing, width (Ry)=  0.0200
                       cart. coord. in units 2pi/alat
        k(    1) = (   0.0000000   0.0000000   0.0000000), wk =   0.1250000
        k(    2) = (   0.0000000   0.2886751   0.0000000), wk =   0.7500000
        k(    3) = (   0.0000000  -0.5773503   0.0000000), wk =   0.3750000
        k(    4) = (   0.2500000   0.4330127   0.0000000), wk =   0.7500000

     PseudoPot. # 1 for N  read from file:
     ./pseudos/N.pbe-n-rrkjus_psl.1.0.0.UPF
     MD5 check sum: ada94e3ed05223de5319d0572dc76806
     Pseudo is Ultrasoft + core correction, Zval =  5.0
     Generated using &quot;atomic&quot; code by A. Dal Corso  v.6.3MaX
     Using radial grid of 1085 points,  4 beta functions with: 
                l(1) =   0
                l(2) =   0
                l(3) =   1
                l(4) =   1
     Q(r) pseudized with 0 coefficients 


     PseudoPot. # 2 for Nb read from file:
     ./pseudos/Nb.pbe-spn-rrkjus_psl.1.0.0.UPF
     MD5 check sum: 6ee677a9f002bd3e3657f443f129faad
     Pseudo is Ultrasoft + core correction, Zval = 13.0
     Generated using &quot;atomic&quot; code by A. Dal Corso  v.6.2.2
     Using radial grid of 1227 points,  6 beta functions with: 
                l(1) =   0
                l(2) =   0
                l(3) =   1
                l(4) =   1
                l(5) =   2
                l(6) =   2
     Q(r) pseudized with 0 coefficients 


     PseudoPot. # 3 for Se read from file:
     ./pseudos/Se.pbe-n-rrkjus_psl.1.0.0.UPF
     MD5 check sum: 8e2a6847b5cb9faee9497ebb573e71ea
     Pseudo is Ultrasoft + core correction, Zval =  6.0
     Generated using &quot;atomic&quot; code by A. Dal Corso  v.6.3
     Using radial grid of 1211 points,  4 beta functions with: 
                l(1) =   0
                l(2) =   0
                l(3) =   1
                l(4) =   1
     Q(r) pseudized with 0 coefficients 


     Mode symmetry, C_3v (3m)   point group:


     Atomic displacements:
     There are    6 irreducible representations

     Representation     1      1 modes -  To be done

     Representation     2      1 modes -  To be done

     Representation     3      1 modes -  To be done

     Representation     4      2 modes -  To be done

     Representation     5      2 modes -  To be done

     Representation     6      2 modes -  To be done



     Alpha used in Ewald sum =   2.7000

     negative rho (up, down):  1.722E-04 0.000E+00
     PHONON       :      8.21s CPU      8.01s WALL



     Representation #   1 mode #   1

     Self-consistent Calculation

     Pert. #  1: Fermi energy shift (Ry) =     3.3312E-02     3.3881E-21

      iter #   1 total cpu time :    10.0 secs   av.it.:  10.0
      thresh= 1.000E-02 alpha_mix =  0.700 |ddv_scf|^2 =  1.522E-03

     Pert. #  1: Fermi energy shift (Ry) =     8.9748E+00    -2.6470E-23

      iter #   2 total cpu time :    11.8 secs   av.it.:  14.0
      thresh= 3.901E-03 alpha_mix =  0.700 |ddv_scf|^2 =  7.909E-02

     Pert. #  1: Fermi energy shift (Ry) =    -2.5903E+00    -8.4703E-22

      iter #   3 total cpu time :    13.5 secs   av.it.:  12.2
      thresh= 1.000E-02 alpha_mix =  0.700 |ddv_scf|^2 =  2.501E-04

     Pert. #  1: Fermi energy shift (Ry) =     4.7376E-01    -8.4703E-22

      iter #   4 total cpu time :    15.2 secs   av.it.:  13.0
      thresh= 1.581E-03 alpha_mix =  0.700 |ddv_scf|^2 =  4.779E-05

     Pert. #  1: Fermi energy shift (Ry) =    -3.9711E-02     2.1176E-22

      iter #   5 total cpu time :    17.0 secs   av.it.:  13.8
      thresh= 6.913E-04 alpha_mix =  0.700 |ddv_scf|^2 =  2.258E-05

     Pert. #  1: Fermi energy shift (Ry) =     7.4997E-02    -1.0588E-22

      iter #   6 total cpu time :    18.8 secs   av.it.:  13.0
      thresh= 4.752E-04 alpha_mix =  0.700 |ddv_scf|^2 =  7.096E-08

     Pert. #  1: Fermi energy shift (Ry) =     5.1790E-02     1.3235E-23

      iter #   7 total cpu time :    20.5 secs   av.it.:  12.2
      thresh= 2.664E-05 alpha_mix =  0.700 |ddv_scf|^2 =  2.037E-08

     Pert. #  1: Fermi energy shift (Ry) =     5.9621E-02     4.1359E-25

      iter #   8 total cpu time :    22.1 secs   av.it.:  11.2
      thresh= 1.427E-05 alpha_mix =  0.700 |ddv_scf|^2 =  1.529E-11

     Pert. #  1: Fermi energy shift (Ry) =     6.0825E-02    -8.2718E-25

      iter #   9 total cpu time :    24.0 secs   av.it.:  15.2
      thresh= 3.910E-07 alpha_mix =  0.700 |ddv_scf|^2 =  4.606E-11

     Pert. #  1: Fermi energy shift (Ry) =     6.0161E-02    -4.1359E-25

      iter #  10 total cpu time :    25.9 secs   av.it.:  13.8
      thresh= 6.787E-07 alpha_mix =  0.700 |ddv_scf|^2 =  2.342E-12

     Pert. #  1: Fermi energy shift (Ry) =     6.0052E-02    -8.2718E-25

      iter #  11 total cpu time :    27.6 secs   av.it.:  12.2
      thresh= 1.530E-07 alpha_mix =  0.700 |ddv_scf|^2 =  2.735E-13

     Pert. #  1: Fermi energy shift (Ry) =     5.9996E-02    -8.2718E-25

      iter #  12 total cpu time :    29.3 secs   av.it.:  12.8
      thresh= 5.229E-08 alpha_mix =  0.700 |ddv_scf|^2 =  2.992E-16

     End of self-consistent calculation

     Convergence has been achieved 


     Representation #   2 mode #   2

     Self-consistent Calculation

     Pert. #  1: Fermi energy shift (Ry) =     6.4307E-01     6.7763E-21

      iter #   1 total cpu time :    31.4 secs   av.it.:   8.2
      thresh= 1.000E-02 alpha_mix =  0.700 |ddv_scf|^2 =  1.058E-04

     Pert. #  1: Fermi energy shift (Ry) =     8.6526E-01     2.6470E-23

      iter #   2 total cpu time :    32.3 secs   av.it.:  14.2
      thresh= 1.028E-03 alpha_mix =  0.700 |ddv_scf|^2 =  3.931E-03

     Pert. #  1: Fermi energy shift (Ry) =    -1.5457E+00    -2.1176E-22

      iter #   3 total cpu time :    34.0 secs   av.it.:  10.8
      thresh= 6.270E-03 alpha_mix =  0.700 |ddv_scf|^2 =  1.075E-04

     Pert. #  1: Fermi energy shift (Ry) =    -5.5005E-02     4.2352E-22

      iter #   4 total cpu time :    35.7 secs   av.it.:  12.2
      thresh= 1.037E-03 alpha_mix =  0.700 |ddv_scf|^2 =  4.308E-06

     Pert. #  1: Fermi energy shift (Ry) =    -1.5310E-01    -1.3235E-23

      iter #   5 total cpu time :    37.5 secs   av.it.:  13.8
      thresh= 2.076E-04 alpha_mix =  0.700 |ddv_scf|^2 =  2.543E-06

     Pert. #  1: Fermi energy shift (Ry) =    -8.6994E-02    -5.2940E-23

      iter #   6 total cpu time :    39.2 secs   av.it.:  13.2
      thresh= 1.595E-04 alpha_mix =  0.700 |ddv_scf|^2 =  1.173E-07

     Pert. #  1: Fermi energy shift (Ry) =    -9.8307E-02    -2.6470E-23

      iter #   7 total cpu time :    40.8 secs   av.it.:  12.0
      thresh= 3.425E-05 alpha_mix =  0.700 |ddv_scf|^2 =  3.457E-09

     Pert. #  1: Fermi energy shift (Ry) =    -9.3153E-02     1.6544E-24

      iter #   8 total cpu time :    42.5 secs   av.it.:  11.2
      thresh= 5.880E-06 alpha_mix =  0.700 |ddv_scf|^2 =  5.091E-11

     Pert. #  1: Fermi energy shift (Ry) =    -9.3273E-02     4.1359E-25

      iter #   9 total cpu time :    44.2 secs   av.it.:  12.2
      thresh= 7.135E-07 alpha_mix =  0.700 |ddv_scf|^2 =  7.883E-12

     Pert. #  1: Fermi energy shift (Ry) =    -9.3106E-02     4.1359E-25

      iter #  10 total cpu time :    45.9 secs   av.it.:  12.2
      thresh= 2.808E-07 alpha_mix =  0.700 |ddv_scf|^2 =  1.643E-13

     Pert. #  1: Fermi energy shift (Ry) =    -9.3130E-02     4.1359E-25

      iter #  11 total cpu time :    47.6 secs   av.it.:  13.0
      thresh= 4.054E-08 alpha_mix =  0.700 |ddv_scf|^2 =  2.341E-14

     Pert. #  1: Fermi energy shift (Ry) =    -9.3132E-02     4.1359E-25

      iter #  12 total cpu time :    49.3 secs   av.it.:  12.0
      thresh= 1.530E-08 alpha_mix =  0.700 |ddv_scf|^2 =  1.213E-16

     End of self-consistent calculation

     Convergence has been achieved 


     Representation #   3 mode #   3

     Self-consistent Calculation

     Pert. #  1: Fermi energy shift (Ry) =    -1.4028E+00    -3.3881E-21

      iter #   1 total cpu time :    51.3 secs   av.it.:   8.0
      thresh= 1.000E-02 alpha_mix =  0.700 |ddv_scf|^2 =  3.121E-04

     Pert. #  1: Fermi energy shift (Ry) =     6.6899E+00    -8.4703E-22

      iter #   2 total cpu time :    53.0 secs   av.it.:  13.8
      thresh= 1.767E-03 alpha_mix =  0.700 |ddv_scf|^2 =  1.798E-02

     Pert. #  1: Fermi energy shift (Ry) =     3.7879E-01     1.6941E-21

      iter #   3 total cpu time :    54.7 secs   av.it.:  11.0
      thresh= 1.000E-02 alpha_mix =  0.700 |ddv_scf|^2 =  1.785E-05

     Pert. #  1: Fermi energy shift (Ry) =    -1.6902E-01    -1.0588E-22

      iter #   4 total cpu time :    56.4 secs   av.it.:  12.2
      thresh= 4.225E-04 alpha_mix =  0.700 |ddv_scf|^2 =  8.051E-07

     Pert. #  1: Fermi energy shift (Ry) =     1.3438E-01    -3.3087E-24

      iter #   5 total cpu time :    58.2 secs   av.it.:  13.8
      thresh= 8.973E-05 alpha_mix =  0.700 |ddv_scf|^2 =  3.096E-06

     Pert. #  1: Fermi energy shift (Ry) =     5.2357E-02     6.6174E-24

      iter #   6 total cpu time :    59.9 secs   av.it.:  12.2
      thresh= 1.759E-04 alpha_mix =  0.700 |ddv_scf|^2 =  3.436E-08

     Pert. #  1: Fermi energy shift (Ry) =     3.3918E-02     1.6544E-24

      iter #   7 total cpu time :    61.7 secs   av.it.:  12.5
      thresh= 1.854E-05 alpha_mix =  0.700 |ddv_scf|^2 =  5.565E-09

     Pert. #  1: Fermi energy shift (Ry) =     3.4927E-02     1.6544E-24

      iter #   8 total cpu time :    63.4 secs   av.it.:  12.0
      thresh= 7.460E-06 alpha_mix =  0.700 |ddv_scf|^2 =  6.419E-10

     Pert. #  1: Fermi energy shift (Ry) =     3.3167E-02     8.2718E-25

      iter #   9 total cpu time :    64.1 secs   av.it.:  10.8
      thresh= 2.534E-06 alpha_mix =  0.700 |ddv_scf|^2 =  4.614E-12

     Pert. #  1: Fermi energy shift (Ry) =     3.3141E-02    -2.5849E-26

      iter #  10 total cpu time :    65.8 secs   av.it.:  11.2
      thresh= 2.148E-07 alpha_mix =  0.700 |ddv_scf|^2 =  1.644E-13

     Pert. #  1: Fermi energy shift (Ry) =     3.3126E-02     5.1699E-26

      iter #  11 total cpu time :    67.4 secs   av.it.:  12.2
      thresh= 4.054E-08 alpha_mix =  0.700 |ddv_scf|^2 =  1.255E-14

     Pert. #  1: Fermi energy shift (Ry) =     3.3135E-02     5.1699E-26

      iter #  12 total cpu time :    69.2 secs   av.it.:  13.0
      thresh= 1.120E-08 alpha_mix =  0.700 |ddv_scf|^2 =  1.024E-14

     Pert. #  1: Fermi energy shift (Ry) =     3.3130E-02     5.1699E-26

      iter #  13 total cpu time :    70.8 secs   av.it.:  11.5
      thresh= 1.012E-08 alpha_mix =  0.700 |ddv_scf|^2 =  7.199E-18

     End of self-consistent calculation

     Convergence has been achieved 


     Representation #   4 modes #   4   5

     Self-consistent Calculation

     Pert. #  1: Fermi energy shift (Ry) =     0.0000E+00     0.0000E+00
     Pert. #  2: Fermi energy shift (Ry) =    -1.1565E-18     0.0000E+00

      iter #   1 total cpu time :    73.8 secs   av.it.:   7.2
      thresh= 1.000E-02 alpha_mix =  0.700 |ddv_scf|^2 =  4.782E-08

     Pert. #  1: Fermi energy shift (Ry) =     5.7824E-19     0.0000E+00
     Pert. #  2: Fermi energy shift (Ry) =     8.6736E-19     0.0000E+00

      iter #   2 total cpu time :    77.6 secs   av.it.:  16.2
      thresh= 2.187E-05 alpha_mix =  0.700 |ddv_scf|^2 =  2.660E-09

     Pert. #  1: Fermi energy shift (Ry) =    -1.7347E-18     0.0000E+00
     Pert. #  2: Fermi energy shift (Ry) =     1.7347E-18     0.0000E+00

      iter #   3 total cpu time :    81.3 secs   av.it.:  16.4
      thresh= 5.158E-06 alpha_mix =  0.700 |ddv_scf|^2 =  9.280E-11

     Pert. #  1: Fermi energy shift (Ry) =    -5.7824E-19     1.2245E-40
     Pert. #  2: Fermi energy shift (Ry) =     1.4456E-18     1.2245E-40

      iter #   4 total cpu time :    85.0 secs   av.it.:  16.1
      thresh= 9.633E-07 alpha_mix =  0.700 |ddv_scf|^2 =  2.831E-12

     Pert. #  1: Fermi energy shift (Ry) =    -1.1565E-18     0.0000E+00
     Pert. #  2: Fermi energy shift (Ry) =    -2.8912E-19     0.0000E+00

      iter #   5 total cpu time :    88.6 secs   av.it.:  15.9
      thresh= 1.683E-07 alpha_mix =  0.700 |ddv_scf|^2 =  5.398E-14

     Pert. #  1: Fermi energy shift (Ry) =    -1.1565E-18     1.2245E-40
     Pert. #  2: Fermi energy shift (Ry) =     2.6021E-18     1.2245E-40

      iter #   6 total cpu time :    91.9 secs   av.it.:  14.8
      thresh= 2.323E-08 alpha_mix =  0.700 |ddv_scf|^2 =  2.267E-15

     End of self-consistent calculation

     Convergence has been achieved 


     Representation #   5 modes #   6   7

     Self-consistent Calculation

     Pert. #  1: Fermi energy shift (Ry) =     0.0000E+00     0.0000E+00
     Pert. #  2: Fermi energy shift (Ry) =     7.2280E-20     0.0000E+00

      iter #   1 total cpu time :    94.8 secs   av.it.:   6.0
      thresh= 1.000E-02 alpha_mix =  0.700 |ddv_scf|^2 =  1.074E-08

     Pert. #  1: Fermi energy shift (Ry) =     0.0000E+00     0.0000E+00
     Pert. #  2: Fermi energy shift (Ry) =     7.2280E-20     0.0000E+00

      iter #   2 total cpu time :    97.1 secs   av.it.:  15.5
      thresh= 1.036E-05 alpha_mix =  0.700 |ddv_scf|^2 =  8.266E-10

     Pert. #  1: Fermi energy shift (Ry) =    -1.4456E-19     0.0000E+00
     Pert. #  2: Fermi energy shift (Ry) =     3.6140E-20     0.0000E+00

      iter #   3 total cpu time :   100.5 secs   av.it.:  16.1
      thresh= 2.875E-06 alpha_mix =  0.700 |ddv_scf|^2 =  7.527E-11

     Pert. #  1: Fermi energy shift (Ry) =     0.0000E+00     0.0000E+00
     Pert. #  2: Fermi energy shift (Ry) =     1.4456E-19     0.0000E+00

      iter #   4 total cpu time :   103.9 secs   av.it.:  15.5
      thresh= 8.676E-07 alpha_mix =  0.700 |ddv_scf|^2 =  6.149E-13

     Pert. #  1: Fermi energy shift (Ry) =     0.0000E+00     0.0000E+00
     Pert. #  2: Fermi energy shift (Ry) =     1.4456E-19     0.0000E+00

      iter #   5 total cpu time :   107.4 secs   av.it.:  16.2
      thresh= 7.841E-08 alpha_mix =  0.700 |ddv_scf|^2 =  6.813E-15

     End of self-consistent calculation

     Convergence has been achieved 


     Representation #   6 modes #   8   9

     Self-consistent Calculation

     Pert. #  1: Fermi energy shift (Ry) =     4.6259E-18     5.0154E-37
     Pert. #  2: Fermi energy shift (Ry) =     5.7824E-18     1.2539E-37

      iter #   1 total cpu time :   110.5 secs   av.it.:   8.4
      thresh= 1.000E-02 alpha_mix =  0.700 |ddv_scf|^2 =  1.969E-07

     Pert. #  1: Fermi energy shift (Ry) =     2.3130E-18    -1.4694E-39
     Pert. #  2: Fermi energy shift (Ry) =     2.3130E-18    -4.2857E-40

      iter #   2 total cpu time :   114.0 secs   av.it.:  16.2
      thresh= 4.438E-05 alpha_mix =  0.700 |ddv_scf|^2 =  2.009E-08

     Pert. #  1: Fermi energy shift (Ry) =     2.3130E-18     4.8979E-40
     Pert. #  2: Fermi energy shift (Ry) =     2.3130E-18     4.2857E-40

      iter #   3 total cpu time :   117.5 secs   av.it.:  16.2
      thresh= 1.417E-05 alpha_mix =  0.700 |ddv_scf|^2 =  3.678E-10

     Pert. #  1: Fermi energy shift (Ry) =     1.1565E-18     6.1224E-41
     Pert. #  2: Fermi energy shift (Ry) =     2.8912E-18     4.5918E-41

      iter #   4 total cpu time :   120.8 secs   av.it.:  15.6
      thresh= 1.918E-06 alpha_mix =  0.700 |ddv_scf|^2 =  6.739E-12

     Pert. #  1: Fermi energy shift (Ry) =     1.1565E-18     9.1835E-41
     Pert. #  2: Fermi energy shift (Ry) =     2.8912E-18     9.5662E-41

      iter #   5 total cpu time :   124.1 secs   av.it.:  16.2
      thresh= 2.596E-07 alpha_mix =  0.700 |ddv_scf|^2 =  5.694E-14

     Pert. #  1: Fermi energy shift (Ry) =     2.3130E-18     9.1835E-41
     Pert. #  2: Fermi energy shift (Ry) =     2.3130E-18     9.5662E-41

      iter #   6 total cpu time :   126.6 secs   av.it.:  16.1
      thresh= 2.386E-08 alpha_mix =  0.700 |ddv_scf|^2 =  1.429E-15

     End of self-consistent calculation

     Convergence has been achieved 

     Number of q in the star =    1
     List of q in the star:
          1   0.000000000   0.000000000   0.000000000

     Diagonalizing the dynamical matrix

     q = (    0.000000000   0.000000000   0.000000000 ) 

 **************************************************************************
     freq (    1) =      -8.366957 [THz] =    -279.091652 [cm-1]
     freq (    2) =      -8.366957 [THz] =    -279.091652 [cm-1]
     freq (    3) =      -0.098751 [THz] =      -3.293988 [cm-1]
     freq (    4) =       0.371089 [THz] =      12.378213 [cm-1]
     freq (    5) =       0.371089 [THz] =      12.378213 [cm-1]
     freq (    6) =       4.825832 [THz] =     160.972444 [cm-1]
     freq (    7) =       4.825832 [THz] =     160.972444 [cm-1]
     freq (    8) =       7.248291 [THz] =     241.776949 [cm-1]
     freq (    9) =      14.813985 [THz] =     494.141359 [cm-1]
 **************************************************************************

     Mode symmetry, C_3v (3m)   point group:

     freq (   1-   2) =       -279.1  [cm-1]   --> E    L_3        I+R
     freq (   3-   3) =         -3.3  [cm-1]   --> A_1  L_1        I+R
     freq (   4-   5) =         12.4  [cm-1]   --> E    L_3        I+R
     freq (   6-   7) =        161.0  [cm-1]   --> E    L_3        I+R
     freq (   8-   8) =        241.8  [cm-1]   --> A_1  L_1        I+R
     freq (   9-   9) =        494.1  [cm-1]   --> A_1  L_1        I+R

     PHONON       :   2m 4.40s CPU   2m 6.80s WALL

     INITIALIZATION: 
     phq_setup    :      0.28s CPU      0.35s WALL (       1 calls)
     phq_init     :      6.45s CPU      6.75s WALL (       1 calls)

     phq_init     :      6.45s CPU      6.75s WALL (       1 calls)
     set_drhoc    :      0.01s CPU      0.01s WALL (       3 calls)
     init_vloc    :      0.06s CPU      0.07s WALL (       1 calls)
     init_us_1    :      0.28s CPU      0.29s WALL (       1 calls)
     init_us_2    :      0.39s CPU      0.44s WALL (     300 calls)
     newd         :      0.26s CPU      0.51s WALL (       1 calls)
     dvanqq       :      3.15s CPU      3.25s WALL (       1 calls)
     drho         :      3.03s CPU      3.18s WALL (       1 calls)
     drhous       :      0.48s CPU      0.51s WALL (       1 calls)
     nldyntot     :      0.00s CPU      0.00s WALL (       1 calls)

     DYNAMICAL MATRIX:
     dynmat0      :      0.25s CPU      0.28s WALL (       1 calls)
     dynmat_us    :      0.13s CPU      0.15s WALL (       1 calls)
     addusdynmat  :      0.00s CPU      0.00s WALL (       1 calls)
     d2ionq       :      0.04s CPU      0.05s WALL (       1 calls)
     dynmatcc     :      0.07s CPU      0.09s WALL (       1 calls)
     phqscf       :    116.18s CPU    118.78s WALL (       1 calls)
     dynmatrix    :      0.00s CPU      0.00s WALL (       1 calls)

     phqscf       :    116.18s CPU    118.78s WALL (       1 calls)
     solve_linter :    115.95s CPU    118.51s WALL (       6 calls)
     dfpt_kernel  :    114.77s CPU    117.20s WALL (       6 calls)
     sth_kernel   :     61.15s CPU     60.81s WALL (      54 calls)
     h_prec       :      0.05s CPU      0.05s WALL (     216 calls)
     apply_dpot_b :      2.38s CPU      2.54s WALL (     248 calls)
     ortho        :      0.56s CPU      0.58s WALL (     284 calls)
     cgsolve      :     54.03s CPU     53.21s WALL (     284 calls)
     incdrhoscf   :      3.26s CPU      3.47s WALL (     284 calls)
                                        0.00s GPU  (     284 calls)
     addusddens   :     22.59s CPU     23.28s WALL (      60 calls)
     dv_of_drho   :      2.82s CPU      2.62s WALL (      71 calls)
     mix_pot      :      0.35s CPU      1.19s WALL (      54 calls)
     ef_shift     :      0.28s CPU      0.32s WALL (      54 calls)
     ef_shift_wfc :      0.01s CPU      0.02s WALL (       6 calls)
     localdos     :      2.17s CPU      2.29s WALL (       6 calls)
     drhodv       :      0.22s CPU      0.24s WALL (       6 calls)
     psymdvscf    :      1.89s CPU      1.94s WALL (      54 calls)
     newdq        :     25.46s CPU     26.47s WALL (      54 calls)
     adddvscf     :      0.35s CPU      0.36s WALL (     248 calls)
     com_dvloc    :      0.09s CPU      0.10s WALL (      99 calls)
                                        0.00s GPU  (      99 calls)
     addcore      :      0.29s CPU      0.32s WALL (      99 calls)
                                        0.00s GPU  (      99 calls)
     drhodvus     :      0.02s CPU      0.04s WALL (       6 calls)

     dvqpsi_us    :      0.48s CPU      0.51s WALL (      36 calls)
                                        0.00s GPU  (      36 calls)
     dvqpsi_us_on :      0.07s CPU      0.07s WALL (      36 calls)

     add_vuspsi   :      2.13s CPU      2.20s WALL (    6931 calls)
     addusdbec    :      0.23s CPU      0.24s WALL (     320 calls)

     drhodvus     :      0.02s CPU      0.04s WALL (       6 calls)

      General routines
     calbec       :      5.47s CPU      5.68s WALL (   14674 calls)
     fft          :      3.12s CPU      1.47s WALL (    1434 calls)
     ffts         :      0.42s CPU      0.44s WALL (     551 calls)
     fftw         :     34.80s CPU     34.35s WALL (  110715 calls)
     davcio       :      0.36s CPU      1.11s WALL (    1842 calls)
     write_rec    :      0.06s CPU      0.31s WALL (      60 calls)

      Additional routines
     ch_psi       :     51.53s CPU     50.62s WALL (    6931 calls)
     last         :      7.37s CPU      7.63s WALL (    6931 calls)
     Hesh         :      0.44s CPU      0.46s WALL (    6931 calls)
     ch_psi_all_k :      6.92s CPU      7.16s WALL (    6931 calls)
                                        0.00s GPU  (    6931 calls)
     ch_psi_calbe :      2.30s CPU      2.38s WALL (    6931 calls)
                                        0.00s GPU  (    6931 calls)
     h_psi_bgrp   :     41.53s CPU     40.26s WALL (    6931 calls)
     h_psi        :     41.52s CPU     40.25s WALL (    6931 calls)
     h_psi:pot    :     41.23s CPU     39.95s WALL (    6931 calls)
     h_psi:calbec :      2.65s CPU      2.75s WALL (    6931 calls)
     s_psi_bgrp   :      4.53s CPU      4.69s WALL (   14146 calls)
     s_psi        :      3.99s CPU      4.14s WALL (   14146 calls)


     PHONON       :   2m 4.40s CPU   2m 6.80s WALL


   This run was terminated on:  12:48:44  10May2026            

=------------------------------------------------------------------------------=
   JOB DONE.
=------------------------------------------------------------------------------=
