
     Program PHONON v.7.5 starts on 10May2026 at 12:50:23 

     This program is part of the open-source Quantum ESPRESSO suite
     for quantum simulation of materials; please cite
         "P. Giannozzi et al., J. Phys.:Condens. Matter 21 395502 (2009);
         "P. Giannozzi et al., J. Phys.:Condens. Matter 29 465901 (2017);
         "P. Giannozzi et al., J. Chem. Phys. 152 154105 (2020);
          URL http://www.quantum-espresso.org", 
     in publications or presentations arising from this work. More details at
     http://www.quantum-espresso.org/quote

     Parallel version (MPI & OpenMP), running on       1 processor cores
     Number of MPI processes:                 1
     Threads/MPI process:                     1

     MPI processes distributed on     1 nodes
     7000 MiB available memory on the printing compute node when the environment starts

     Reading input from candidate_01_NbNSe/04_gamma_phonon_relaxed.in
      Title line not specified: using 'default'.

     Reading xml data from directory:

     ./tmp/candidate_01_NbNSe_relaxed.save/

     Subspace diagonalization in iterative solution of the eigenvalue problem:
     a serial algorithm will be used

     file Nb.pbe-spn-rrkjus_psl.1.0.0.UPF: wavefunction(s)  4S 4P renormalized

     IMPORTANT: XC functional enforced from input :
     Exchange-correlation= PBE
                           (   1   4   3   4   0   0   0)
     Any further DFT definition will be discarded
     Please, verify this is what you really want


     G-vector sticks info
     --------------------
     sticks:   dense  smooth     PW     G-vecs:    dense   smooth      PW
     Sum         871     433    121               105739    37473    5961

     Using Slab Decomposition

 ----2D----2D----2D----2D----2D----2D----2D----2D----2D----2D----2D----2D
  The code is running with the 2D cutoff
  Please refer to:
  Sohier, T., Calandra, M., & Mauri, F. (2017), 
  Density functional perturbation theory for gated two-dimensional heterostructures:
  Theoretical developments and application to flexural phonons in graphene.
  Physical Review B, 96(7), 75448. https://doi.org/10.1103/PhysRevB.96.075448
 ----2D----2D----2D----2D----2D----2D----2D----2D----2D----2D----2D----2D

     negative rho (up, down):  1.722E-04 0.000E+00
     Reading collected, re-writing distributed wavefunctions in ./tmp/

     Number and degeneracy of irreps per q-point
       N         xq(1)         xq(2)         xq(3)   N irreps
       1   0.000000000   0.000000000   0.000000000       6
        1   1   1   2   2   2

     Calculation of q =    0.0000000   0.0000000   0.0000000

     default                                                                    

     bravais-lattice index     =            0
     lattice parameter (alat)  =       6.7410  a.u.
     unit-cell volume          =    1338.5944 (a.u.)^3
     number of atoms/cell      =            3
     number of atomic types    =            3
     kinetic-energy cut-off    =      35.0000  Ry
     charge density cut-off    =     280.0000  Ry
     convergence threshold     =      1.0E-14
     beta                      =       0.7000
     number of iterations used =            4
     Exchange-correlation= PBE
                           (   1   4   3   4   0   0   0)


     celldm(1)=    6.74099  celldm(2)=    0.00000  celldm(3)=    0.00000
     celldm(4)=    0.00000  celldm(5)=    0.00000  celldm(6)=    0.00000

     crystal axes: (cart. coord. in units of alat)
               a(1) = (  1.0000  0.0000  0.0000 )  
               a(2) = ( -0.5000  0.8660  0.0000 )  
               a(3) = (  0.0000  0.0000  5.0460 )  

     reciprocal axes: (cart. coord. in units 2 pi/alat)
               b(1) = (  1.0000  0.5774 -0.0000 )  
               b(2) = (  0.0000  1.1547  0.0000 )  
               b(3) = (  0.0000 -0.0000  0.1982 )  


     Atoms inside the unit cell: 

     Cartesian axes

     site n.  atom      mass           positions (alat units)
        1  Nb     92.9060   tau(    1) = (    0.00000   -0.00000   -0.10026  )
        2  Se     78.9710   tau(    2) = (    0.50000    0.28868    0.40941  )
        3  N      14.0070   tau(    3) = (    0.50000    0.28868   -0.30914  )

     Computing dynamical matrix for 
                    q = (   0.0000000   0.0000000   0.0000000 )

      7 Sym.Ops. (with q -> -q+G )


     G cutoff =  322.2888  ( 105739 G-vectors)     FFT grid: ( 36, 36,192)
     G cutoff =  161.1444  (  37473 G-vectors)  smooth grid: ( 25, 25,135)

     number of k points=     4  Methfessel-Paxton smearing, width (Ry)=  0.0200
                       cart. coord. in units 2pi/alat
        k(    1) = (   0.0000000   0.0000000   0.0000000), wk =   0.1250000
        k(    2) = (   0.0000000   0.2886751   0.0000000), wk =   0.7500000
        k(    3) = (   0.0000000  -0.5773503   0.0000000), wk =   0.3750000
        k(    4) = (   0.2500000   0.4330127   0.0000000), wk =   0.7500000

     PseudoPot. # 1 for N  read from file:
     ./pseudos/N.pbe-n-rrkjus_psl.1.0.0.UPF
     MD5 check sum: ada94e3ed05223de5319d0572dc76806
     Pseudo is Ultrasoft + core correction, Zval =  5.0
     Generated using &quot;atomic&quot; code by A. Dal Corso  v.6.3MaX
     Using radial grid of 1085 points,  4 beta functions with: 
                l(1) =   0
                l(2) =   0
                l(3) =   1
                l(4) =   1
     Q(r) pseudized with 0 coefficients 


     PseudoPot. # 2 for Nb read from file:
     ./pseudos/Nb.pbe-spn-rrkjus_psl.1.0.0.UPF
     MD5 check sum: 6ee677a9f002bd3e3657f443f129faad
     Pseudo is Ultrasoft + core correction, Zval = 13.0
     Generated using &quot;atomic&quot; code by A. Dal Corso  v.6.2.2
     Using radial grid of 1227 points,  6 beta functions with: 
                l(1) =   0
                l(2) =   0
                l(3) =   1
                l(4) =   1
                l(5) =   2
                l(6) =   2
     Q(r) pseudized with 0 coefficients 


     PseudoPot. # 3 for Se read from file:
     ./pseudos/Se.pbe-n-rrkjus_psl.1.0.0.UPF
     MD5 check sum: 8e2a6847b5cb9faee9497ebb573e71ea
     Pseudo is Ultrasoft + core correction, Zval =  6.0
     Generated using &quot;atomic&quot; code by A. Dal Corso  v.6.3
     Using radial grid of 1211 points,  4 beta functions with: 
                l(1) =   0
                l(2) =   0
                l(3) =   1
                l(4) =   1
     Q(r) pseudized with 0 coefficients 


     Mode symmetry, C_3v (3m)   point group:


     Atomic displacements:
     There are    6 irreducible representations

     Representation     1      1 modes -  To be done

     Representation     2      1 modes -  To be done

     Representation     3      1 modes -  To be done

     Representation     4      2 modes -  To be done

     Representation     5      2 modes -  To be done

     Representation     6      2 modes -  To be done



     Alpha used in Ewald sum =   2.7000

     negative rho (up, down):  1.722E-04 0.000E+00
     PHONON       :      9.24s CPU     10.10s WALL



     Representation #   1 mode #   1

     Self-consistent Calculation

     Pert. #  1: Fermi energy shift (Ry) =     3.3628E-02     3.3881E-21

      iter #   1 total cpu time :    12.2 secs   av.it.:  10.0
      thresh= 1.000E-02 alpha_mix =  0.700 |ddv_scf|^2 =  1.523E-03

     Pert. #  1: Fermi energy shift (Ry) =     8.9762E+00    -4.2352E-22

      iter #   2 total cpu time :    14.0 secs   av.it.:  14.0
      thresh= 3.902E-03 alpha_mix =  0.700 |ddv_scf|^2 =  7.915E-02

     Pert. #  1: Fermi energy shift (Ry) =    -2.5915E+00    -8.4703E-22

      iter #   3 total cpu time :    15.8 secs   av.it.:  12.2
      thresh= 1.000E-02 alpha_mix =  0.700 |ddv_scf|^2 =  2.505E-04

     Pert. #  1: Fermi energy shift (Ry) =     4.7479E-01    -8.4703E-22

      iter #   4 total cpu time :    17.6 secs   av.it.:  13.0
      thresh= 1.583E-03 alpha_mix =  0.700 |ddv_scf|^2 =  4.792E-05

     Pert. #  1: Fermi energy shift (Ry) =    -3.9010E-02     1.0588E-22

      iter #   5 total cpu time :    19.5 secs   av.it.:  13.8
      thresh= 6.923E-04 alpha_mix =  0.700 |ddv_scf|^2 =  2.259E-05

     Pert. #  1: Fermi energy shift (Ry) =     7.4996E-02    -1.0588E-22

      iter #   6 total cpu time :    21.3 secs   av.it.:  13.0
      thresh= 4.753E-04 alpha_mix =  0.700 |ddv_scf|^2 =  7.046E-08

     Pert. #  1: Fermi energy shift (Ry) =     5.1813E-02    -6.6174E-24

      iter #   7 total cpu time :    23.0 secs   av.it.:  12.2
      thresh= 2.655E-05 alpha_mix =  0.700 |ddv_scf|^2 =  2.021E-08

     Pert. #  1: Fermi energy shift (Ry) =     5.9631E-02    -1.3235E-23

      iter #   8 total cpu time :    24.8 secs   av.it.:  11.2
      thresh= 1.422E-05 alpha_mix =  0.700 |ddv_scf|^2 =  1.509E-11

     Pert. #  1: Fermi energy shift (Ry) =     6.0836E-02    -1.3235E-23

      iter #   9 total cpu time :    26.8 secs   av.it.:  15.2
      thresh= 3.884E-07 alpha_mix =  0.700 |ddv_scf|^2 =  4.567E-11

     Pert. #  1: Fermi energy shift (Ry) =     6.0171E-02    -1.3235E-23

      iter #  10 total cpu time :    28.6 secs   av.it.:  13.8
      thresh= 6.758E-07 alpha_mix =  0.700 |ddv_scf|^2 =  2.370E-12

     Pert. #  1: Fermi energy shift (Ry) =     6.0062E-02    -1.3235E-23

      iter #  11 total cpu time :    30.3 secs   av.it.:  12.2
      thresh= 1.539E-07 alpha_mix =  0.700 |ddv_scf|^2 =  2.770E-13

     Pert. #  1: Fermi energy shift (Ry) =     6.0006E-02    -1.3235E-23

      iter #  12 total cpu time :    32.1 secs   av.it.:  12.8
      thresh= 5.263E-08 alpha_mix =  0.700 |ddv_scf|^2 =  2.129E-16

     End of self-consistent calculation

     Convergence has been achieved 


     Representation #   2 mode #   2

     Self-consistent Calculation

     Pert. #  1: Fermi energy shift (Ry) =     6.4317E-01     6.7763E-21

      iter #   1 total cpu time :    34.3 secs   av.it.:   8.2
      thresh= 1.000E-02 alpha_mix =  0.700 |ddv_scf|^2 =  1.058E-04

     Pert. #  1: Fermi energy shift (Ry) =     8.6545E-01    -5.2940E-23

      iter #   2 total cpu time :    36.2 secs   av.it.:  14.2
      thresh= 1.029E-03 alpha_mix =  0.700 |ddv_scf|^2 =  3.934E-03

     Pert. #  1: Fermi energy shift (Ry) =    -1.5459E+00    -2.1176E-22

      iter #   3 total cpu time :    37.9 secs   av.it.:  10.8
      thresh= 6.272E-03 alpha_mix =  0.700 |ddv_scf|^2 =  1.076E-04

     Pert. #  1: Fermi energy shift (Ry) =    -5.4037E-02     4.2352E-22

      iter #   4 total cpu time :    39.8 secs   av.it.:  12.2
      thresh= 1.037E-03 alpha_mix =  0.700 |ddv_scf|^2 =  4.331E-06

     Pert. #  1: Fermi energy shift (Ry) =    -1.5229E-01     4.1359E-25

      iter #   5 total cpu time :    40.3 secs   av.it.:  13.8
      thresh= 2.081E-04 alpha_mix =  0.700 |ddv_scf|^2 =  2.561E-06

     Pert. #  1: Fermi energy shift (Ry) =    -8.7278E-02    -2.6470E-23

      iter #   6 total cpu time :    42.0 secs   av.it.:  13.2
      thresh= 1.600E-04 alpha_mix =  0.700 |ddv_scf|^2 =  1.101E-07

     Pert. #  1: Fermi energy shift (Ry) =    -9.8197E-02    -6.6174E-24

      iter #   7 total cpu time :    43.7 secs   av.it.:  11.8
      thresh= 3.318E-05 alpha_mix =  0.700 |ddv_scf|^2 =  3.177E-09

     Pert. #  1: Fermi energy shift (Ry) =    -9.3127E-02     1.3235E-23

      iter #   8 total cpu time :    45.4 secs   av.it.:  11.2
      thresh= 5.636E-06 alpha_mix =  0.700 |ddv_scf|^2 =  5.167E-11

     Pert. #  1: Fermi energy shift (Ry) =    -9.3238E-02     6.6174E-24

      iter #   9 total cpu time :    47.1 secs   av.it.:  12.2
      thresh= 7.189E-07 alpha_mix =  0.700 |ddv_scf|^2 =  8.171E-12

     Pert. #  1: Fermi energy shift (Ry) =    -9.3075E-02     6.6174E-24

      iter #  10 total cpu time :    48.9 secs   av.it.:  12.2
      thresh= 2.859E-07 alpha_mix =  0.700 |ddv_scf|^2 =  1.152E-13

     Pert. #  1: Fermi energy shift (Ry) =    -9.3097E-02     6.6174E-24

      iter #  11 total cpu time :    50.7 secs   av.it.:  13.0
      thresh= 3.394E-08 alpha_mix =  0.700 |ddv_scf|^2 =  2.254E-14

     Pert. #  1: Fermi energy shift (Ry) =    -9.3100E-02     6.6174E-24

      iter #  12 total cpu time :    52.4 secs   av.it.:  12.0
      thresh= 1.501E-08 alpha_mix =  0.700 |ddv_scf|^2 =  1.631E-16

     End of self-consistent calculation

     Convergence has been achieved 


     Representation #   3 mode #   3

     Self-consistent Calculation

     Pert. #  1: Fermi energy shift (Ry) =    -1.4028E+00    -3.3881E-21

      iter #   1 total cpu time :    54.5 secs   av.it.:   8.0
      thresh= 1.000E-02 alpha_mix =  0.700 |ddv_scf|^2 =  3.123E-04

     Pert. #  1: Fermi energy shift (Ry) =     6.6919E+00    -1.6941E-21

      iter #   2 total cpu time :    56.4 secs   av.it.:  13.8
      thresh= 1.767E-03 alpha_mix =  0.700 |ddv_scf|^2 =  1.800E-02

     Pert. #  1: Fermi energy shift (Ry) =     3.7879E-01     1.6941E-21

      iter #   3 total cpu time :    58.2 secs   av.it.:  11.0
      thresh= 1.000E-02 alpha_mix =  0.700 |ddv_scf|^2 =  1.787E-05

     Pert. #  1: Fermi energy shift (Ry) =    -1.6908E-01    -1.0588E-22

      iter #   4 total cpu time :    60.1 secs   av.it.:  12.2
      thresh= 4.227E-04 alpha_mix =  0.700 |ddv_scf|^2 =  8.035E-07

     Pert. #  1: Fermi energy shift (Ry) =     1.3447E-01    -1.6544E-24

      iter #   5 total cpu time :    62.0 secs   av.it.:  13.8
      thresh= 8.964E-05 alpha_mix =  0.700 |ddv_scf|^2 =  3.101E-06

     Pert. #  1: Fermi energy shift (Ry) =     5.2387E-02     1.3235E-23

      iter #   6 total cpu time :    63.8 secs   av.it.:  12.2
      thresh= 1.761E-04 alpha_mix =  0.700 |ddv_scf|^2 =  3.408E-08

     Pert. #  1: Fermi energy shift (Ry) =     3.3924E-02     6.6174E-24

      iter #   7 total cpu time :    65.5 secs   av.it.:  12.5
      thresh= 1.846E-05 alpha_mix =  0.700 |ddv_scf|^2 =  5.559E-09

     Pert. #  1: Fermi energy shift (Ry) =     3.4962E-02     6.6174E-24

      iter #   8 total cpu time :    67.2 secs   av.it.:  12.0
      thresh= 7.456E-06 alpha_mix =  0.700 |ddv_scf|^2 =  6.302E-10

     Pert. #  1: Fermi energy shift (Ry) =     3.3198E-02     3.3087E-24

      iter #   9 total cpu time :    68.8 secs   av.it.:  11.0
      thresh= 2.510E-06 alpha_mix =  0.700 |ddv_scf|^2 =  4.680E-12

     Pert. #  1: Fermi energy shift (Ry) =     3.3169E-02     3.3087E-24

      iter #  10 total cpu time :    70.6 secs   av.it.:  11.2
      thresh= 2.163E-07 alpha_mix =  0.700 |ddv_scf|^2 =  1.719E-13

     Pert. #  1: Fermi energy shift (Ry) =     3.3153E-02     3.3087E-24

      iter #  11 total cpu time :    71.5 secs   av.it.:  12.2
      thresh= 4.146E-08 alpha_mix =  0.700 |ddv_scf|^2 =  1.301E-14

     Pert. #  1: Fermi energy shift (Ry) =     3.3162E-02     3.3087E-24

      iter #  12 total cpu time :    73.4 secs   av.it.:  13.0
      thresh= 1.141E-08 alpha_mix =  0.700 |ddv_scf|^2 =  1.178E-14

     Pert. #  1: Fermi energy shift (Ry) =     3.3157E-02     3.3087E-24

      iter #  13 total cpu time :    75.2 secs   av.it.:  11.5
      thresh= 1.085E-08 alpha_mix =  0.700 |ddv_scf|^2 =  9.751E-18

     End of self-consistent calculation

     Convergence has been achieved 


     Representation #   4 modes #   4   5

     Self-consistent Calculation

     Pert. #  1: Fermi energy shift (Ry) =     0.0000E+00     0.0000E+00
     Pert. #  2: Fermi energy shift (Ry) =    -1.1565E-18     0.0000E+00

      iter #   1 total cpu time :    78.3 secs   av.it.:   7.2
      thresh= 1.000E-02 alpha_mix =  0.700 |ddv_scf|^2 =  4.762E-08

     Pert. #  1: Fermi energy shift (Ry) =    -5.7824E-19     0.0000E+00
     Pert. #  2: Fermi energy shift (Ry) =     1.1565E-18     0.0000E+00

      iter #   2 total cpu time :    82.1 secs   av.it.:  16.5
      thresh= 2.182E-05 alpha_mix =  0.700 |ddv_scf|^2 =  2.655E-09

     Pert. #  1: Fermi energy shift (Ry) =    -5.7824E-19     7.8366E-39
     Pert. #  2: Fermi energy shift (Ry) =    -5.7824E-19     7.8366E-39

      iter #   3 total cpu time :    85.9 secs   av.it.:  16.6
      thresh= 5.153E-06 alpha_mix =  0.700 |ddv_scf|^2 =  9.133E-11

     Pert. #  1: Fermi energy shift (Ry) =     1.1565E-18     7.8366E-39
     Pert. #  2: Fermi energy shift (Ry) =     8.6736E-19     7.8366E-39

      iter #   4 total cpu time :    89.6 secs   av.it.:  16.1
      thresh= 9.557E-07 alpha_mix =  0.700 |ddv_scf|^2 =  2.828E-12

     Pert. #  1: Fermi energy shift (Ry) =     5.7824E-19     7.8366E-39
     Pert. #  2: Fermi energy shift (Ry) =     1.1565E-18     7.8366E-39

      iter #   5 total cpu time :    93.2 secs   av.it.:  16.1
      thresh= 1.682E-07 alpha_mix =  0.700 |ddv_scf|^2 =  5.490E-14

     Pert. #  1: Fermi energy shift (Ry) =    -5.7824E-19     7.8366E-39
     Pert. #  2: Fermi energy shift (Ry) =     2.8912E-19     7.8366E-39

      iter #   6 total cpu time :    96.8 secs   av.it.:  15.0
      thresh= 2.343E-08 alpha_mix =  0.700 |ddv_scf|^2 =  2.257E-15

     End of self-consistent calculation

     Convergence has been achieved 


     Representation #   5 modes #   6   7

     Self-consistent Calculation

     Pert. #  1: Fermi energy shift (Ry) =    -1.4456E-19     0.0000E+00
     Pert. #  2: Fermi energy shift (Ry) =     5.0596E-19     0.0000E+00

      iter #   1 total cpu time :   100.0 secs   av.it.:   6.0
      thresh= 1.000E-02 alpha_mix =  0.700 |ddv_scf|^2 =  1.052E-08

     Pert. #  1: Fermi energy shift (Ry) =    -7.2280E-20     0.0000E+00
     Pert. #  2: Fermi energy shift (Ry) =     7.2280E-20     0.0000E+00

      iter #   2 total cpu time :   103.4 secs   av.it.:  15.8
      thresh= 1.026E-05 alpha_mix =  0.700 |ddv_scf|^2 =  8.063E-10

     Pert. #  1: Fermi energy shift (Ry) =     7.2280E-20     0.0000E+00
     Pert. #  2: Fermi energy shift (Ry) =     2.5298E-19     0.0000E+00

      iter #   3 total cpu time :   106.0 secs   av.it.:  16.1
      thresh= 2.840E-06 alpha_mix =  0.700 |ddv_scf|^2 =  7.312E-11

     Pert. #  1: Fermi energy shift (Ry) =     1.4456E-19     0.0000E+00
     Pert. #  2: Fermi energy shift (Ry) =     3.6140E-20     0.0000E+00

      iter #   4 total cpu time :   109.6 secs   av.it.:  15.8
      thresh= 8.551E-07 alpha_mix =  0.700 |ddv_scf|^2 =  6.139E-13

     Pert. #  1: Fermi energy shift (Ry) =     7.2280E-20     0.0000E+00
     Pert. #  2: Fermi energy shift (Ry) =     3.6140E-20     0.0000E+00

      iter #   5 total cpu time :   113.3 secs   av.it.:  16.5
      thresh= 7.835E-08 alpha_mix =  0.700 |ddv_scf|^2 =  6.790E-15

     End of self-consistent calculation

     Convergence has been achieved 


     Representation #   6 modes #   8   9

     Self-consistent Calculation

     Pert. #  1: Fermi energy shift (Ry) =     0.0000E+00     5.0154E-37
     Pert. #  2: Fermi energy shift (Ry) =     3.4694E-18     1.2539E-37

      iter #   1 total cpu time :   116.6 secs   av.it.:   8.4
      thresh= 1.000E-02 alpha_mix =  0.700 |ddv_scf|^2 =  1.950E-07

     Pert. #  1: Fermi energy shift (Ry) =     2.3130E-18    -1.9592E-39
     Pert. #  2: Fermi energy shift (Ry) =     1.1565E-18    -5.8775E-39

      iter #   2 total cpu time :   120.1 secs   av.it.:  16.2
      thresh= 4.416E-05 alpha_mix =  0.700 |ddv_scf|^2 =  1.999E-08

     Pert. #  1: Fermi energy shift (Ry) =     3.4694E-18    -7.8366E-39
     Pert. #  2: Fermi energy shift (Ry) =     3.4694E-18    -1.9592E-39

      iter #   3 total cpu time :   123.8 secs   av.it.:  16.2
      thresh= 1.414E-05 alpha_mix =  0.700 |ddv_scf|^2 =  3.328E-10

     Pert. #  1: Fermi energy shift (Ry) =     2.3130E-18    -7.8366E-39
     Pert. #  2: Fermi energy shift (Ry) =     4.0477E-18    -1.9592E-39

      iter #   4 total cpu time :   127.4 secs   av.it.:  15.6
      thresh= 1.824E-06 alpha_mix =  0.700 |ddv_scf|^2 =  6.720E-12

     Pert. #  1: Fermi energy shift (Ry) =     3.4694E-18    -7.8366E-39
     Pert. #  2: Fermi energy shift (Ry) =     2.3130E-18    -1.9592E-39

      iter #   5 total cpu time :   131.1 secs   av.it.:  16.2
      thresh= 2.592E-07 alpha_mix =  0.700 |ddv_scf|^2 =  5.703E-14

     Pert. #  1: Fermi energy shift (Ry) =     1.1565E-18    -7.8366E-39
     Pert. #  2: Fermi energy shift (Ry) =     3.4694E-18    -1.9592E-39

      iter #   6 total cpu time :   134.7 secs   av.it.:  16.4
      thresh= 2.388E-08 alpha_mix =  0.700 |ddv_scf|^2 =  1.435E-15

     End of self-consistent calculation

     Convergence has been achieved 

     Number of q in the star =    1
     List of q in the star:
          1   0.000000000   0.000000000   0.000000000

     Diagonalizing the dynamical matrix

     q = (    0.000000000   0.000000000   0.000000000 ) 

 **************************************************************************
     freq (    1) =      -8.267047 [THz] =    -275.758996 [cm-1]
     freq (    2) =      -8.267047 [THz] =    -275.758996 [cm-1]
     freq (    3) =      -0.350286 [THz] =     -11.684274 [cm-1]
     freq (    4) =       0.180822 [THz] =       6.031570 [cm-1]
     freq (    5) =       0.180822 [THz] =       6.031570 [cm-1]
     freq (    6) =       4.804283 [THz] =     160.253634 [cm-1]
     freq (    7) =       4.804283 [THz] =     160.253634 [cm-1]
     freq (    8) =       7.237967 [THz] =     241.432580 [cm-1]
     freq (    9) =      14.865257 [THz] =     495.851597 [cm-1]
 **************************************************************************

     Mode symmetry, C_3v (3m)   point group:

     freq (   1-   2) =       -275.8  [cm-1]   --> E    L_3        I+R
     freq (   3-   3) =        -11.7  [cm-1]   --> A_1  L_1        I+R
     freq (   4-   5) =          6.0  [cm-1]   --> E    L_3        I+R
     freq (   6-   7) =        160.3  [cm-1]   --> E    L_3        I+R
     freq (   8-   8) =        241.4  [cm-1]   --> A_1  L_1        I+R
     freq (   9-   9) =        495.9  [cm-1]   --> A_1  L_1        I+R

     PHONON       :   2m10.59s CPU   2m15.01s WALL

     INITIALIZATION: 
     phq_setup    :      0.27s CPU      0.36s WALL (       1 calls)
     phq_init     :      7.43s CPU      7.78s WALL (       1 calls)

     phq_init     :      7.43s CPU      7.78s WALL (       1 calls)
     set_drhoc    :      0.01s CPU      0.01s WALL (       3 calls)
     init_vloc    :      0.07s CPU      0.07s WALL (       1 calls)
     init_us_1    :      0.32s CPU      0.33s WALL (       1 calls)
     init_us_2    :      0.40s CPU      0.47s WALL (     300 calls)
     newd         :      0.29s CPU      0.53s WALL (       1 calls)
     dvanqq       :      3.49s CPU      3.60s WALL (       1 calls)
     drho         :      3.62s CPU      3.81s WALL (       1 calls)
     drhous       :      0.71s CPU      0.74s WALL (       1 calls)
     nldyntot     :      0.00s CPU      0.00s WALL (       1 calls)

     DYNAMICAL MATRIX:
     dynmat0      :      0.29s CPU      0.32s WALL (       1 calls)
     dynmat_us    :      0.15s CPU      0.15s WALL (       1 calls)
     addusdynmat  :      0.00s CPU      0.00s WALL (       1 calls)
     d2ionq       :      0.05s CPU      0.05s WALL (       1 calls)
     dynmatcc     :      0.09s CPU      0.11s WALL (       1 calls)
     phqscf       :    121.34s CPU    124.89s WALL (       1 calls)
     dynmatrix    :      0.00s CPU      0.01s WALL (       1 calls)

     phqscf       :    121.34s CPU    124.89s WALL (       1 calls)
     solve_linter :    121.11s CPU    124.60s WALL (       6 calls)
     dfpt_kernel  :    119.73s CPU    123.03s WALL (       6 calls)
     sth_kernel   :     64.79s CPU     66.57s WALL (      54 calls)
     h_prec       :      0.05s CPU      0.05s WALL (     216 calls)
     apply_dpot_b :      2.50s CPU      2.68s WALL (     248 calls)
     ortho        :      0.57s CPU      0.61s WALL (     284 calls)
     cgsolve      :     57.33s CPU     58.56s WALL (     284 calls)
     incdrhoscf   :      3.44s CPU      3.66s WALL (     284 calls)
                                        0.00s GPU  (     284 calls)
     addusddens   :     23.62s CPU     22.99s WALL (      60 calls)
     dv_of_drho   :      2.99s CPU      3.73s WALL (      71 calls)
     mix_pot      :      0.37s CPU      1.20s WALL (      54 calls)
     ef_shift     :      0.28s CPU      0.33s WALL (      54 calls)
     ef_shift_wfc :      0.01s CPU      0.02s WALL (       6 calls)
     localdos     :      2.23s CPU      2.36s WALL (       6 calls)
     drhodv       :      0.23s CPU      0.25s WALL (       6 calls)
     psymdvscf    :      2.05s CPU      2.11s WALL (      54 calls)
     newdq        :     25.68s CPU     25.84s WALL (      54 calls)
     adddvscf     :      0.37s CPU      0.39s WALL (     248 calls)
     com_dvloc    :      0.10s CPU      0.11s WALL (      99 calls)
                                        0.00s GPU  (      99 calls)
     addcore      :      0.34s CPU      0.38s WALL (      99 calls)
                                        0.00s GPU  (      99 calls)
     drhodvus     :      0.02s CPU      0.05s WALL (       6 calls)

     dvqpsi_us    :      0.61s CPU      0.65s WALL (      36 calls)
                                        0.00s GPU  (      36 calls)
     dvqpsi_us_on :      0.08s CPU      0.08s WALL (      36 calls)

     add_vuspsi   :      2.23s CPU      2.32s WALL (    6934 calls)
     addusdbec    :      0.26s CPU      0.26s WALL (     320 calls)

     drhodvus     :      0.02s CPU      0.05s WALL (       6 calls)

      General routines
     calbec       :      5.78s CPU      6.01s WALL (   14680 calls)
     fft          :      3.25s CPU      3.49s WALL (    1434 calls)
     ffts         :      0.48s CPU      0.50s WALL (     551 calls)
     fftw         :     37.13s CPU     37.76s WALL (  110993 calls)
     davcio       :      0.38s CPU      1.13s WALL (    1842 calls)
     write_rec    :      0.05s CPU      0.30s WALL (      60 calls)

      Additional routines
     ch_psi       :     54.70s CPU     55.82s WALL (    6934 calls)
     last         :      7.79s CPU      8.08s WALL (    6934 calls)
     Hesh         :      0.46s CPU      0.48s WALL (    6934 calls)
     ch_psi_all_k :      7.31s CPU      7.58s WALL (    6934 calls)
                                        0.00s GPU  (    6934 calls)
     ch_psi_calbe :      2.44s CPU      2.53s WALL (    6934 calls)
                                        0.00s GPU  (    6934 calls)
     h_psi_bgrp   :     44.13s CPU     44.86s WALL (    6934 calls)
     h_psi        :     44.12s CPU     44.85s WALL (    6934 calls)
     h_psi:pot    :     43.82s CPU     44.53s WALL (    6934 calls)
     h_psi:calbec :      2.80s CPU      2.90s WALL (    6934 calls)
     s_psi_bgrp   :      4.78s CPU      4.96s WALL (   14152 calls)
     s_psi        :      4.21s CPU      4.38s WALL (   14152 calls)


     PHONON       :   2m10.59s CPU   2m15.01s WALL


   This run was terminated on:  12:52:38  10May2026            

=------------------------------------------------------------------------------=
   JOB DONE.
=------------------------------------------------------------------------------=
