
     Program PWSCF v.7.5 starts on 10May2026 at 13:16:33 

     This program is part of the open-source Quantum ESPRESSO suite
     for quantum simulation of materials; please cite
         "P. Giannozzi et al., J. Phys.:Condens. Matter 21 395502 (2009);
         "P. Giannozzi et al., J. Phys.:Condens. Matter 29 465901 (2017);
         "P. Giannozzi et al., J. Chem. Phys. 152 154105 (2020);
          URL http://www.quantum-espresso.org", 
     in publications or presentations arising from this work. More details at
     http://www.quantum-espresso.org/quote

     Parallel version (MPI & OpenMP), running on       1 processor cores
     Number of MPI processes:                 1
     Threads/MPI process:                     1

     MPI processes distributed on     1 nodes
     6990 MiB available memory on the printing compute node when the environment starts

     Reading input from candidate_NbSSe/01_relax.in

     Current dimensions of program PWSCF are:
     Max number of different atomic species (ntypx) = 10
     Max number of k-points (npk) =  40000
     Max angular momentum in pseudopotentials (lmaxx) =  4
     file Nb.pbe-spn-rrkjus_psl.1.0.0.UPF: wavefunction(s)  4S 4P renormalized
     Message from routine setup:
     using ibrav=0 with symmetry is DISCOURAGED, use correct ibrav instead

     Subspace diagonalization in iterative solution of the eigenvalue problem:
     a serial algorithm will be used


     G-vector sticks info
     --------------------
     sticks:   dense  smooth     PW     G-vecs:    dense   smooth      PW
     Sum         805     397    121                96073    33909    5651

     Using Slab Decomposition



     bravais-lattice index     =            0
     lattice parameter (alat)  =       6.4251  a.u.
     unit-cell volume          =    1216.0672 (a.u.)^3
     number of atoms/cell      =            3
     number of atomic types    =            3
     number of electrons       =        25.00
     number of Kohn-Sham states=           17
     kinetic-energy cutoff     =      35.0000  Ry
     charge density cutoff     =     280.0000  Ry
     scf convergence threshold =      1.0E-07
     mixing beta               =       0.3500
     number of iterations used =            8  plain     mixing
     energy convergence thresh.=      1.0E-04
     force convergence thresh. =      1.0E-03
     Exchange-correlation= PBE
                           (   1   4   3   4   0   0   0)
     nstep                     =           50


     celldm(1)=   6.425069  celldm(2)=   0.000000  celldm(3)=   0.000000
     celldm(4)=   0.000000  celldm(5)=   0.000000  celldm(6)=   0.000000

     crystal axes: (cart. coord. in units of alat)
               a(1) = (   1.000000   0.000000   0.000000 )  
               a(2) = (  -0.500000   0.866025   0.000000 )  
               a(3) = (   0.000000   0.000000   5.294118 )  

     reciprocal axes: (cart. coord. in units 2 pi/alat)
               b(1) = (  1.000000  0.577350 -0.000000 )  
               b(2) = (  0.000000  1.154701  0.000000 )  
               b(3) = (  0.000000 -0.000000  0.188889 )  


     PseudoPot. # 1 for Nb read from file:
     ./pseudos/Nb.pbe-spn-rrkjus_psl.1.0.0.UPF
     MD5 check sum: 6ee677a9f002bd3e3657f443f129faad
     Pseudo is Ultrasoft + core correction, Zval = 13.0
     Generated using &quot;atomic&quot; code by A. Dal Corso  v.6.2.2
     Using radial grid of 1227 points,  6 beta functions with: 
                l(1) =   0
                l(2) =   0
                l(3) =   1
                l(4) =   1
                l(5) =   2
                l(6) =   2
     Q(r) pseudized with 0 coefficients 


     PseudoPot. # 2 for S  read from file:
     ./pseudos/S.pbe-n-rrkjus_psl.1.0.0.UPF
     MD5 check sum: 9d0fe39aa2a799ea84730884c9b010f4
     Pseudo is Ultrasoft + core correction, Zval =  6.0
     Generated using &quot;atomic&quot; code by A. Dal Corso  v.6.3
     Using radial grid of 1151 points,  6 beta functions with: 
                l(1) =   0
                l(2) =   0
                l(3) =   1
                l(4) =   1
                l(5) =   2
                l(6) =   2
     Q(r) pseudized with 0 coefficients 


     PseudoPot. # 3 for Se read from file:
     ./pseudos/Se.pbe-n-rrkjus_psl.1.0.0.UPF
     MD5 check sum: 8e2a6847b5cb9faee9497ebb573e71ea
     Pseudo is Ultrasoft + core correction, Zval =  6.0
     Generated using &quot;atomic&quot; code by A. Dal Corso  v.6.3
     Using radial grid of 1211 points,  4 beta functions with: 
                l(1) =   0
                l(2) =   0
                l(3) =   1
                l(4) =   1
     Q(r) pseudized with 0 coefficients 


     atomic species   valence    mass     pseudopotential
     Nb               13.00    92.90600     Nb( 1.00)
     S                 6.00    32.06000     S ( 1.00)
     Se                6.00    78.97100     Se( 1.00)

      6 Sym. Ops. (no inversion) found



   Cartesian axes

     site n.     atom                  positions (alat units)
         1        Nb     tau(   1) = (   0.0000000   0.0000000   0.0000000  )
         2        Se     tau(   2) = (   0.5000000   0.2886751   0.4764706  )
         3        S      tau(   3) = (   0.5000000   0.2886751  -0.4470588  )

     number of k points=     4  Methfessel-Paxton smearing, width (Ry)=  0.0200
                       cart. coord. in units 2pi/alat
        k(    1) = (   0.0000000   0.0000000   0.0000000), wk =   0.1250000
        k(    2) = (   0.0000000   0.2886751   0.0000000), wk =   0.7500000
        k(    3) = (   0.0000000  -0.5773503   0.0000000), wk =   0.3750000
        k(    4) = (   0.2500000   0.4330127   0.0000000), wk =   0.7500000

     Dense  grid:    96073 G-vectors     FFT dimensions: (  36,  36, 192)

     Smooth grid:    33909 G-vectors     FFT dimensions: (  25,  25, 135)

     Estimated max dynamical RAM per process >     369.48 MB
 ----2D----2D----2D----2D----2D----2D----2D----2D----2D----2D----2D----2D
  The code is running with the 2D cutoff
  Please refer to:
  Sohier, T., Calandra, M., & Mauri, F. (2017), 
  Density functional perturbation theory for gated two-dimensional heterostructures:
  Theoretical developments and application to flexural phonons in graphene.
  Physical Review B, 96(7), 75448. https://doi.org/10.1103/PhysRevB.96.075448
 ----2D----2D----2D----2D----2D----2D----2D----2D----2D----2D----2D----2D

     Initial potential from superposition of free atoms

     starting charge      24.9986, renormalised to      25.0000

     negative rho (up, down):  1.439E-04 0.000E+00
     Starting wfcs are   21 randomized atomic wfcs

     total cpu time spent up to now is        2.6 secs

     per-process dynamical memory:    78.4 Mb

     Self-consistent Calculation

     iteration #  1     ecut=    35.00 Ry     beta= 0.35
     Davidson diagonalization with overlap
     ethr =  1.00E-02,  avg # of iterations =  2.5

     Threshold (ethr) on eigenvalues was too large:
     Diagonalizing with lowered threshold

     Davidson diagonalization with overlap
     ethr =  3.67E-04,  avg # of iterations =  3.2

     negative rho (up, down):  1.197E-04 0.000E+00

     total cpu time spent up to now is        5.3 secs

     total energy              =    -159.95970431 Ry
     estimated scf accuracy    <       0.11616832 Ry

     iteration #  2     ecut=    35.00 Ry     beta= 0.35
     Davidson diagonalization with overlap
     ethr =  4.65E-04,  avg # of iterations =  2.0

     negative rho (up, down):  1.161E-04 0.000E+00

     total cpu time spent up to now is        7.0 secs

     total energy              =    -159.93945223 Ry
     estimated scf accuracy    <       0.20089313 Ry

     iteration #  3     ecut=    35.00 Ry     beta= 0.35
     Davidson diagonalization with overlap
     ethr =  4.65E-04,  avg # of iterations =  2.0

     negative rho (up, down):  1.057E-04 0.000E+00

     total cpu time spent up to now is        8.6 secs

     total energy              =    -159.97345521 Ry
     estimated scf accuracy    <       0.06418572 Ry

     iteration #  4     ecut=    35.00 Ry     beta= 0.35
     Davidson diagonalization with overlap
     ethr =  2.57E-04,  avg # of iterations =  1.0

     negative rho (up, down):  1.036E-04 0.000E+00

     total cpu time spent up to now is       10.2 secs

     total energy              =    -159.97868521 Ry
     estimated scf accuracy    <       0.00287434 Ry

     iteration #  5     ecut=    35.00 Ry     beta= 0.35
     Davidson diagonalization with overlap
     ethr =  1.15E-05,  avg # of iterations =  3.2

     negative rho (up, down):  1.084E-04 0.000E+00

     total cpu time spent up to now is       11.8 secs

     total energy              =    -159.97906428 Ry
     estimated scf accuracy    <       0.00086022 Ry

     iteration #  6     ecut=    35.00 Ry     beta= 0.35
     Davidson diagonalization with overlap
     ethr =  3.44E-06,  avg # of iterations =  2.0

     negative rho (up, down):  1.082E-04 0.000E+00

     total cpu time spent up to now is       13.2 secs

     total energy              =    -159.97910810 Ry
     estimated scf accuracy    <       0.00034769 Ry

     iteration #  7     ecut=    35.00 Ry     beta= 0.35
     Davidson diagonalization with overlap
     ethr =  1.39E-06,  avg # of iterations =  2.0

     negative rho (up, down):  1.093E-04 0.000E+00

     total cpu time spent up to now is       14.8 secs

     total energy              =    -159.97916840 Ry
     estimated scf accuracy    <       0.00005915 Ry

     iteration #  8     ecut=    35.00 Ry     beta= 0.35
     Davidson diagonalization with overlap
     ethr =  2.37E-07,  avg # of iterations =  1.5

     negative rho (up, down):  1.095E-04 0.000E+00

     total cpu time spent up to now is       16.3 secs

     total energy              =    -159.97917766 Ry
     estimated scf accuracy    <       0.00000813 Ry

     iteration #  9     ecut=    35.00 Ry     beta= 0.35
     Davidson diagonalization with overlap
     ethr =  3.25E-08,  avg # of iterations =  2.0

     negative rho (up, down):  1.096E-04 0.000E+00

     total cpu time spent up to now is       17.9 secs

     total energy              =    -159.97917926 Ry
     estimated scf accuracy    <       0.00000058 Ry

     iteration # 10     ecut=    35.00 Ry     beta= 0.35
     Davidson diagonalization with overlap
     ethr =  2.30E-09,  avg # of iterations =  3.2

     negative rho (up, down):  1.092E-04 0.000E+00

     total cpu time spent up to now is       19.5 secs

     total energy              =    -159.97917930 Ry
     estimated scf accuracy    <       0.00000031 Ry

     iteration # 11     ecut=    35.00 Ry     beta= 0.35
     Davidson diagonalization with overlap
     ethr =  1.24E-09,  avg # of iterations =  2.0

     negative rho (up, down):  1.089E-04 0.000E+00

     total cpu time spent up to now is       21.1 secs

     End of self-consistent calculation

          k = 0.0000 0.0000 0.0000 (  4205 PWs)   bands (ev):

   -60.7408 -36.8785 -36.7275 -36.7275 -19.5335 -18.1650 -10.8477  -8.1739
    -8.1739  -7.0565  -6.9662  -6.9662  -4.8830  -2.8557  -2.8557  -2.3956
    -2.3956

          k = 0.0000 0.2887 0.0000 (  4222 PWs)   bands (ev):

   -60.7267 -36.8901 -36.8427 -36.7638 -18.8711 -17.9435 -10.2716  -9.3842
    -8.8001  -8.0185  -7.3627  -6.7508  -5.7954  -3.0259  -3.0192  -2.5784
    -1.6746

          k = 0.0000-0.5774 0.0000 (  4236 PWs)   bands (ev):

   -60.7125 -37.0474 -36.8071 -36.7994 -18.0865 -17.6819 -10.9868  -9.9402
    -9.3733  -8.5751  -7.0993  -6.7928  -5.9444  -3.0706  -2.6521  -1.6927
    -1.0199

          k = 0.2500 0.4330 0.0000 (  4280 PWs)   bands (ev):

   -60.7128 -36.9898 -36.8604 -36.8075 -18.1000 -17.6689 -10.3706 -10.0927
    -9.1684  -8.4882  -8.3554  -6.9871  -5.7896  -3.1963  -2.5553  -2.1357
    -0.9100

     the Fermi energy is    -5.8088 ev

!    total energy              =    -159.97917938 Ry
     estimated scf accuracy    <       0.00000002 Ry
     smearing contrib. (-TS)   =      -0.00459924 Ry
     internal energy E=F+TS    =    -159.97458014 Ry

     The total energy is F=E-TS. E is the sum of the following terms:
     one-electron contribution =   -1318.90143233 Ry
     hartree contribution      =     655.45127486 Ry
     xc contribution           =     -30.15128384 Ry
     ewald contribution        =     533.62686117 Ry

     convergence has been achieved in  11 iterations

     negative rho (up, down):  1.089E-04 0.000E+00

     Forces acting on atoms (cartesian axes, Ry/au):

     atom    1 type  1   force =     0.00000000   -0.00000000   -0.05401527
     atom    2 type  3   force =     0.00000000    0.00000000    0.06294649
     atom    3 type  2   force =     0.00000000    0.00000000   -0.00893122

     Total force =     0.083425     Total SCF correction =     0.000471


     Computing stress (Cartesian axis) and pressure


     negative rho (up, down):  1.089E-04 0.000E+00
          total   stress  (Ry/bohr**3)                   (kbar)     P=       13.37
   0.00006359   0.00000000   0.00000000            9.35        0.00        0.00
   0.00000000   0.00006359   0.00000000            0.00        9.35        0.00
   0.00000000   0.00000000   0.00014557            0.00        0.00       21.41


     BFGS Geometry Optimization
     Energy error            =      7.0E-03 Ry
     Gradient error          =      6.3E-02 Ry/Bohr

     number of scf cycles    =   1
     number of bfgs steps    =   0

     energy             new  =    -159.9791793757 Ry

     new trust radius        =       0.0629464941 bohr
     new conv_thr            =       0.0000001000 Ry


ATOMIC_POSITIONS (angstrom)
Nb               0.0000000000       -0.0000000000       -0.0285836495
Se               1.7000000000        0.9814954600        1.6533098502
S                1.7000000000        0.9814954600       -1.5247262007



     Writing config-only to output data dir ./tmp/candidate_NbSSe.save/ :
     XML data file
     NEW-OLD atomic charge density approx. for the potential

     negative rho (up, down):  1.175E-04 0.000E+00

     total cpu time spent up to now is       27.9 secs

     per-process dynamical memory:   106.8 Mb

     Self-consistent Calculation

     iteration #  1     ecut=    35.00 Ry     beta= 0.35
     Davidson diagonalization with overlap
     ethr =  1.00E-06,  avg # of iterations =  7.2

     negative rho (up, down):  1.141E-04 0.000E+00

     total cpu time spent up to now is       29.9 secs

     total energy              =    -159.98404459 Ry
     estimated scf accuracy    <       0.00037183 Ry

     iteration #  2     ecut=    35.00 Ry     beta= 0.35
     Davidson diagonalization with overlap
     ethr =  1.49E-06,  avg # of iterations =  2.5

     negative rho (up, down):  1.128E-04 0.000E+00

     total cpu time spent up to now is       31.6 secs

     total energy              =    -159.98397328 Ry
     estimated scf accuracy    <       0.00202974 Ry

     iteration #  3     ecut=    35.00 Ry     beta= 0.35
     Davidson diagonalization with overlap
     ethr =  1.49E-06,  avg # of iterations =  2.0

     negative rho (up, down):  1.118E-04 0.000E+00

     total cpu time spent up to now is       33.1 secs

     total energy              =    -159.98418986 Ry
     estimated scf accuracy    <       0.00005002 Ry

     iteration #  4     ecut=    35.00 Ry     beta= 0.35
     Davidson diagonalization with overlap
     ethr =  2.00E-07,  avg # of iterations =  2.0

     negative rho (up, down):  1.111E-04 0.000E+00

     total cpu time spent up to now is       34.7 secs

     total energy              =    -159.98419724 Ry
     estimated scf accuracy    <       0.00003061 Ry

     iteration #  5     ecut=    35.00 Ry     beta= 0.35
     Davidson diagonalization with overlap
     ethr =  1.22E-07,  avg # of iterations =  1.2

     negative rho (up, down):  1.111E-04 0.000E+00

     total cpu time spent up to now is       36.2 secs

     total energy              =    -159.98420113 Ry
     estimated scf accuracy    <       0.00000275 Ry

     iteration #  6     ecut=    35.00 Ry     beta= 0.35
     Davidson diagonalization with overlap
     ethr =  1.10E-08,  avg # of iterations =  2.0

     negative rho (up, down):  1.110E-04 0.000E+00

     total cpu time spent up to now is       37.8 secs

     total energy              =    -159.98420148 Ry
     estimated scf accuracy    <       0.00000021 Ry

     iteration #  7     ecut=    35.00 Ry     beta= 0.35
     Davidson diagonalization with overlap
     ethr =  8.49E-10,  avg # of iterations =  3.5

     negative rho (up, down):  1.105E-04 0.000E+00

     total cpu time spent up to now is       39.5 secs

     End of self-consistent calculation

          k = 0.0000 0.0000 0.0000 (  4205 PWs)   bands (ev):

   -60.7196 -36.8448 -36.7005 -36.7005 -19.4271 -18.1833 -10.7848  -8.1662
    -8.1662  -7.1216  -6.7797  -6.7797  -4.8661  -2.7747  -2.7747  -2.4795
    -2.4795

          k = 0.0000 0.2887 0.0000 (  4222 PWs)   bands (ev):

   -60.7057 -36.8608 -36.8100 -36.7364 -18.7625 -17.9542 -10.1974  -9.3670
    -8.6905  -8.0641  -7.1289  -6.7963  -5.7563  -3.1268  -3.0147  -2.4950
    -1.6978

          k = 0.0000-0.5774 0.0000 (  4236 PWs)   bands (ev):

   -60.6916 -37.0158 -36.7753 -36.7716 -17.9625 -17.6912 -10.9089  -9.9196
    -9.3176  -8.5344  -7.1237  -6.6674  -5.9063  -3.0307  -2.6375  -1.7273
    -1.0770

          k = 0.2500 0.4330 0.0000 (  4280 PWs)   bands (ev):

   -60.6920 -36.9588 -36.8319 -36.7758 -17.9785 -17.6779 -10.2888 -10.0295
    -9.1297  -8.4836  -8.2615  -7.0081  -5.7323  -3.1948  -2.5617  -2.1073
    -0.9718

     the Fermi energy is    -5.7620 ev

!    total energy              =    -159.98420153 Ry
     estimated scf accuracy    <       0.00000001 Ry
     smearing contrib. (-TS)   =      -0.00450293 Ry
     internal energy E=F+TS    =    -159.97969860 Ry

     The total energy is F=E-TS. E is the sum of the following terms:
     one-electron contribution =   -1313.48331610 Ry
     hartree contribution      =     652.76486201 Ry
     xc contribution           =     -30.12473406 Ry
     ewald contribution        =     530.86348956 Ry

     convergence has been achieved in   7 iterations

     negative rho (up, down):  1.105E-04 0.000E+00

     Forces acting on atoms (cartesian axes, Ry/au):

     atom    1 type  1   force =     0.00000000    0.00000000   -0.01830100
     atom    2 type  3   force =     0.00000000   -0.00000000    0.03156448
     atom    3 type  2   force =     0.00000000    0.00000000   -0.01326348

     Total force =     0.038822     Total SCF correction =     0.000346


     Computing stress (Cartesian axis) and pressure


     negative rho (up, down):  1.105E-04 0.000E+00
          total   stress  (Ry/bohr**3)                   (kbar)     P=        7.55
   0.00003738  -0.00000000   0.00000000            5.50       -0.00        0.00
  -0.00000000   0.00003738  -0.00000000           -0.00        5.50       -0.00
   0.00000000  -0.00000000   0.00007915            0.00       -0.00       11.64

     Energy error            =      5.0E-03 Ry
     Gradient error          =      3.2E-02 Ry/Bohr

     number of scf cycles    =   2
     number of bfgs steps    =   1

     energy             old  =    -159.9791793757 Ry
     energy             new  =    -159.9842015321 Ry

     CASE: energy            _new < energy            _old

     new trust radius        =       0.0606899310 bohr
     new conv_thr            =       0.0000000316 Ry


ATOMIC_POSITIONS (angstrom)
Nb              -0.0000000000       -0.0000000000       -0.0477733408
Se               1.7000000000        0.9814954600        1.6854255786
S                1.7000000000        0.9814954600       -1.5376522378



     Writing config-only to output data dir ./tmp/candidate_NbSSe.save/ :
     XML data file
     NEW-OLD atomic charge density approx. for the potential

     negative rho (up, down):  1.119E-04 0.000E+00

     total cpu time spent up to now is       46.4 secs

     per-process dynamical memory:   106.8 Mb

     Self-consistent Calculation

     iteration #  1     ecut=    35.00 Ry     beta= 0.35
     Davidson diagonalization with overlap
     ethr =  1.00E-06,  avg # of iterations =  7.2

     negative rho (up, down):  1.110E-04 0.000E+00

     total cpu time spent up to now is       48.8 secs

     total energy              =    -159.98576780 Ry
     estimated scf accuracy    <       0.00022234 Ry

     iteration #  2     ecut=    35.00 Ry     beta= 0.35
     Davidson diagonalization with overlap
     ethr =  8.89E-07,  avg # of iterations =  2.0

     negative rho (up, down):  1.109E-04 0.000E+00

     total cpu time spent up to now is       50.5 secs

     total energy              =    -159.98577090 Ry
     estimated scf accuracy    <       0.00036842 Ry

     iteration #  3     ecut=    35.00 Ry     beta= 0.35
     Davidson diagonalization with overlap
     ethr =  8.89E-07,  avg # of iterations =  2.0

     negative rho (up, down):  1.111E-04 0.000E+00

     total cpu time spent up to now is       52.1 secs

     total energy              =    -159.98581007 Ry
     estimated scf accuracy    <       0.00009339 Ry

     iteration #  4     ecut=    35.00 Ry     beta= 0.35
     Davidson diagonalization with overlap
     ethr =  3.74E-07,  avg # of iterations =  2.0

     negative rho (up, down):  1.108E-04 0.000E+00

     total cpu time spent up to now is       53.8 secs

     total energy              =    -159.98582375 Ry
     estimated scf accuracy    <       0.00003886 Ry

     iteration #  5     ecut=    35.00 Ry     beta= 0.35
     Davidson diagonalization with overlap
     ethr =  1.55E-07,  avg # of iterations =  1.0

     negative rho (up, down):  1.110E-04 0.000E+00

     total cpu time spent up to now is       55.3 secs

     total energy              =    -159.98582808 Ry
     estimated scf accuracy    <       0.00000108 Ry

     iteration #  6     ecut=    35.00 Ry     beta= 0.35
     Davidson diagonalization with overlap
     ethr =  4.32E-09,  avg # of iterations =  4.0

     negative rho (up, down):  1.111E-04 0.000E+00

     total cpu time spent up to now is       56.9 secs

     total energy              =    -159.98582823 Ry
     estimated scf accuracy    <       0.00000029 Ry

     iteration #  7     ecut=    35.00 Ry     beta= 0.35
     Davidson diagonalization with overlap
     ethr =  1.17E-09,  avg # of iterations =  2.0

     negative rho (up, down):  1.110E-04 0.000E+00

     total cpu time spent up to now is       58.5 secs

     total energy              =    -159.98582828 Ry
     estimated scf accuracy    <       0.00000004 Ry

     iteration #  8     ecut=    35.00 Ry     beta= 0.35
     Davidson diagonalization with overlap
     ethr =  1.50E-10,  avg # of iterations =  2.0

     negative rho (up, down):  1.110E-04 0.000E+00

     total cpu time spent up to now is       60.2 secs

     End of self-consistent calculation

          k = 0.0000 0.0000 0.0000 (  4205 PWs)   bands (ev):

   -60.7077 -36.8202 -36.6821 -36.6821 -19.3309 -18.1829 -10.7205  -8.1275
    -8.1275  -7.1889  -6.6048  -6.6048  -4.8641  -2.7502  -2.7502  -2.5238
    -2.5238

          k = 0.0000 0.2887 0.0000 (  4222 PWs)   bands (ev):

   -60.6940 -36.8401 -36.7861 -36.7176 -18.6715 -17.9385 -10.1200  -9.3407
    -8.5772  -8.0580  -6.9276  -6.8441  -5.7244  -3.2276  -3.0336  -2.4368
    -1.7171

          k = 0.0000-0.5774 0.0000 (  4236 PWs)   bands (ev):

   -60.6801 -36.9926 -36.7526 -36.7524 -17.8913 -17.6384 -10.8403  -9.8802
    -9.2562  -8.4792  -7.1530  -6.5411  -5.8740  -2.9985  -2.6335  -1.7735
    -1.1469

          k = 0.2500 0.4330 0.0000 (  4280 PWs)   bands (ev):

   -60.6804 -36.9364 -36.8120 -36.7530 -17.9052 -17.6293 -10.2354  -9.9290
    -9.0835  -8.4719  -8.1623  -7.0310  -5.6818  -3.2104  -2.5707  -2.0930
    -1.0484

     the Fermi energy is    -5.7221 ev

!    total energy              =    -159.98582829 Ry
     estimated scf accuracy    <          2.3E-09 Ry
     smearing contrib. (-TS)   =      -0.00438341 Ry
     internal energy E=F+TS    =    -159.98144488 Ry

     The total energy is F=E-TS. E is the sum of the following terms:
     one-electron contribution =   -1307.05538440 Ry
     hartree contribution      =     649.57199371 Ry
     xc contribution           =     -30.09530202 Ry
     ewald contribution        =     527.59724782 Ry

     convergence has been achieved in   8 iterations

     negative rho (up, down):  1.110E-04 0.000E+00

     Forces acting on atoms (cartesian axes, Ry/au):

     atom    1 type  1   force =     0.00000000   -0.00000000    0.00609725
     atom    2 type  3   force =     0.00000000   -0.00000000    0.00527727
     atom    3 type  2   force =     0.00000000    0.00000000   -0.01137452

     Total force =     0.013943     Total SCF correction =     0.000228


     Computing stress (Cartesian axis) and pressure


     negative rho (up, down):  1.110E-04 0.000E+00
          total   stress  (Ry/bohr**3)                   (kbar)     P=        1.61
   0.00001320   0.00000000   0.00000000            1.94        0.00        0.00
   0.00000000   0.00001320   0.00000000            0.00        1.94        0.00
   0.00000000   0.00000000   0.00000651            0.00        0.00        0.96

     Energy error            =      1.6E-03 Ry
     Gradient error          =      1.1E-02 Ry/Bohr

     number of scf cycles    =   3
     number of bfgs steps    =   2

     energy             old  =    -159.9842015321 Ry
     energy             new  =    -159.9858282937 Ry

     CASE: energy            _new < energy            _old

     new trust radius        =       0.0156434777 bohr
     new conv_thr            =       0.0000000114 Ry


ATOMIC_POSITIONS (angstrom)
Nb               0.0000000000       -0.0000000000       -0.0471076484
Se               1.7000000000        0.9814954600        1.6930380581
S                1.7000000000        0.9814954600       -1.5459304097



     Writing config-only to output data dir ./tmp/candidate_NbSSe.save/ :
     XML data file
     NEW-OLD atomic charge density approx. for the potential

     negative rho (up, down):  1.103E-04 0.000E+00

     total cpu time spent up to now is       67.2 secs

     per-process dynamical memory:   106.8 Mb

     Self-consistent Calculation

     iteration #  1     ecut=    35.00 Ry     beta= 0.35
     Davidson diagonalization with overlap
     ethr =  1.00E-06,  avg # of iterations =  5.0

     negative rho (up, down):  1.106E-04 0.000E+00

     total cpu time spent up to now is       68.9 secs

     total energy              =    -159.98599703 Ry
     estimated scf accuracy    <       0.00007053 Ry

     iteration #  2     ecut=    35.00 Ry     beta= 0.35
     Davidson diagonalization with overlap
     ethr =  2.82E-07,  avg # of iterations =  2.2

     negative rho (up, down):  1.107E-04 0.000E+00

     total cpu time spent up to now is       70.6 secs

     total energy              =    -159.98599556 Ry
     estimated scf accuracy    <       0.00020727 Ry

     iteration #  3     ecut=    35.00 Ry     beta= 0.35
     Davidson diagonalization with overlap
     ethr =  2.82E-07,  avg # of iterations =  2.0

     negative rho (up, down):  1.108E-04 0.000E+00

     total cpu time spent up to now is       72.2 secs

     total energy              =    -159.98602127 Ry
     estimated scf accuracy    <       0.00003250 Ry

     iteration #  4     ecut=    35.00 Ry     beta= 0.35
     Davidson diagonalization with overlap
     ethr =  1.30E-07,  avg # of iterations =  1.8

     negative rho (up, down):  1.109E-04 0.000E+00

     total cpu time spent up to now is       73.8 secs

     total energy              =    -159.98602536 Ry
     estimated scf accuracy    <       0.00000153 Ry

     iteration #  5     ecut=    35.00 Ry     beta= 0.35
     Davidson diagonalization with overlap
     ethr =  6.12E-09,  avg # of iterations =  2.0

     negative rho (up, down):  1.110E-04 0.000E+00

     total cpu time spent up to now is       75.3 secs

     total energy              =    -159.98602555 Ry
     estimated scf accuracy    <       0.00000013 Ry

     iteration #  6     ecut=    35.00 Ry     beta= 0.35
     Davidson diagonalization with overlap
     ethr =  5.11E-10,  avg # of iterations =  2.5

     negative rho (up, down):  1.110E-04 0.000E+00

     total cpu time spent up to now is       77.1 secs

     total energy              =    -159.98602557 Ry
     estimated scf accuracy    <       0.00000002 Ry

     iteration #  7     ecut=    35.00 Ry     beta= 0.35
     Davidson diagonalization with overlap
     ethr =  7.27E-11,  avg # of iterations =  2.0

     negative rho (up, down):  1.111E-04 0.000E+00

     total cpu time spent up to now is       78.7 secs

     End of self-consistent calculation

          k = 0.0000 0.0000 0.0000 (  4205 PWs)   bands (ev):

   -60.7171 -36.8231 -36.6896 -36.6896 -19.3088 -18.1808 -10.7028  -8.0848
    -8.0848  -7.2065  -6.5813  -6.5813  -4.8902  -2.7550  -2.7550  -2.5492
    -2.5492

          k = 0.0000 0.2887 0.0000 (  4222 PWs)   bands (ev):

   -60.7035 -36.8464 -36.7893 -36.7249 -18.6505 -17.9321 -10.0930  -9.3181
    -8.5676  -8.0214  -6.9028  -6.8582  -5.7328  -3.2476  -3.0485  -2.4532
    -1.7365

          k = 0.0000-0.5774 0.0000 (  4236 PWs)   bands (ev):

   -60.6896 -36.9980 -36.7595 -36.7561 -17.8673 -17.6296 -10.8214  -9.8739
    -9.2382  -8.4474  -7.1700  -6.5226  -5.8770  -2.9982  -2.6359  -1.7898
    -1.1781

          k = 0.2500 0.4330 0.0000 (  4280 PWs)   bands (ev):

   -60.6899 -36.9420 -36.8187 -36.7565 -17.8819 -17.6205 -10.2109  -9.9084
    -9.0675  -8.4635  -8.1520  -7.0442  -5.6750  -3.2158  -2.5758  -2.1162
    -1.0747

     the Fermi energy is    -5.7234 ev

!    total energy              =    -159.98602557 Ry
     estimated scf accuracy    <          1.5E-09 Ry
     smearing contrib. (-TS)   =      -0.00430354 Ry
     internal energy E=F+TS    =    -159.98172203 Ry

     The total energy is F=E-TS. E is the sum of the following terms:
     one-electron contribution =   -1304.81165016 Ry
     hartree contribution      =     648.45037930 Ry
     xc contribution           =     -30.08480234 Ry
     ewald contribution        =     526.46435116 Ry

     convergence has been achieved in   7 iterations

     negative rho (up, down):  1.111E-04 0.000E+00

     Forces acting on atoms (cartesian axes, Ry/au):

     atom    1 type  1   force =     0.00000000    0.00000000    0.00607604
     atom    2 type  3   force =     0.00000000    0.00000000    0.00101965
     atom    3 type  2   force =     0.00000000   -0.00000000   -0.00709570

     Total force =     0.009397     Total SCF correction =     0.000146


     Computing stress (Cartesian axis) and pressure


     negative rho (up, down):  1.111E-04 0.000E+00
          total   stress  (Ry/bohr**3)                   (kbar)     P=       -0.37
   0.00000355   0.00000000   0.00000000            0.52        0.00        0.00
   0.00000000   0.00000355   0.00000000            0.00        0.52        0.00
   0.00000000   0.00000000  -0.00001464            0.00        0.00       -2.15

     Energy error            =      2.0E-04 Ry
     Gradient error          =      7.1E-03 Ry/Bohr

     number of scf cycles    =   4
     number of bfgs steps    =   3

     energy             old  =    -159.9858282937 Ry
     energy             new  =    -159.9860255747 Ry

     CASE: energy            _new < energy            _old

     new trust radius        =       0.0172078255 bohr
     new conv_thr            =       0.0000000020 Ry


ATOMIC_POSITIONS (angstrom)
Nb              -0.0000000000       -0.0000000000       -0.0431797836
Se               1.7000000000        0.9814954600        1.6982161824
S                1.7000000000        0.9814954600       -1.5550363988



     Writing config-only to output data dir ./tmp/candidate_NbSSe.save/ :
     XML data file
     NEW-OLD atomic charge density approx. for the potential

     negative rho (up, down):  1.108E-04 0.000E+00

     total cpu time spent up to now is       85.7 secs

     per-process dynamical memory:   106.8 Mb

     Self-consistent Calculation

     iteration #  1     ecut=    35.00 Ry     beta= 0.35
     Davidson diagonalization with overlap
     ethr =  1.00E-06,  avg # of iterations =  5.2

     negative rho (up, down):  1.108E-04 0.000E+00

     total cpu time spent up to now is       87.5 secs

     total energy              =    -159.98609324 Ry
     estimated scf accuracy    <       0.00009414 Ry

     iteration #  2     ecut=    35.00 Ry     beta= 0.35
     Davidson diagonalization with overlap
     ethr =  3.77E-07,  avg # of iterations =  2.5

     negative rho (up, down):  1.108E-04 0.000E+00

     total cpu time spent up to now is       89.2 secs

     total energy              =    -159.98608773 Ry
     estimated scf accuracy    <       0.00032903 Ry

     iteration #  3     ecut=    35.00 Ry     beta= 0.35
     Davidson diagonalization with overlap
     ethr =  3.77E-07,  avg # of iterations =  2.0

     negative rho (up, down):  1.108E-04 0.000E+00

     total cpu time spent up to now is       90.9 secs

     total energy              =    -159.98612773 Ry
     estimated scf accuracy    <       0.00004019 Ry

     iteration #  4     ecut=    35.00 Ry     beta= 0.35
     Davidson diagonalization with overlap
     ethr =  1.61E-07,  avg # of iterations =  1.8

     negative rho (up, down):  1.109E-04 0.000E+00

     total cpu time spent up to now is       92.5 secs

     total energy              =    -159.98613312 Ry
     estimated scf accuracy    <       0.00000195 Ry

     iteration #  5     ecut=    35.00 Ry     beta= 0.35
     Davidson diagonalization with overlap
     ethr =  7.81E-09,  avg # of iterations =  2.2

     negative rho (up, down):  1.109E-04 0.000E+00

     total cpu time spent up to now is       94.2 secs

     total energy              =    -159.98613341 Ry
     estimated scf accuracy    <       0.00000018 Ry

     iteration #  6     ecut=    35.00 Ry     beta= 0.35
     Davidson diagonalization with overlap
     ethr =  7.04E-10,  avg # of iterations =  2.5

     negative rho (up, down):  1.109E-04 0.000E+00

     total cpu time spent up to now is       95.8 secs

     total energy              =    -159.98613344 Ry
     estimated scf accuracy    <       0.00000003 Ry

     iteration #  7     ecut=    35.00 Ry     beta= 0.35
     Davidson diagonalization with overlap
     ethr =  1.12E-10,  avg # of iterations =  2.2

     negative rho (up, down):  1.109E-04 0.000E+00

     total cpu time spent up to now is       97.3 secs

     End of self-consistent calculation

          k = 0.0000 0.0000 0.0000 (  4205 PWs)   bands (ev):

   -60.7310 -36.8299 -36.7018 -36.7018 -19.2942 -18.1775 -10.6889  -8.0328
    -8.0328  -7.2191  -6.5768  -6.5768  -4.9258  -2.7629  -2.7629  -2.5782
    -2.5782

          k = 0.0000 0.2887 0.0000 (  4222 PWs)   bands (ev):

   -60.7173 -36.8576 -36.7964 -36.7370 -18.6366 -17.9255 -10.0686  -9.2908
    -8.5727  -7.9731  -6.9002  -6.8694  -5.7488  -3.2586  -3.0648  -2.4835
    -1.7597

          k = 0.0000-0.5774 0.0000 (  4236 PWs)   bands (ev):

   -60.7036 -37.0083 -36.7714 -36.7634 -17.8452 -17.6263 -10.8064  -9.8716
    -9.2234  -8.4125  -7.1883  -6.5175  -5.8858  -3.0024  -2.6387  -1.8038
    -1.2089

          k = 0.2500 0.4330 0.0000 (  4280 PWs)   bands (ev):

   -60.7039 -36.9525 -36.8303 -36.7639 -17.8613 -17.6163 -10.1853  -9.8964
    -9.0533  -8.4541  -8.1532  -7.0583  -5.6732  -3.2194  -2.5810  -2.1494
    -1.0976

     the Fermi energy is    -5.7309 ev

!    total energy              =    -159.98613344 Ry
     estimated scf accuracy    <          1.5E-09 Ry
     smearing contrib. (-TS)   =      -0.00419285 Ry
     internal energy E=F+TS    =    -159.98194059 Ry

     The total energy is F=E-TS. E is the sum of the following terms:
     one-electron contribution =   -1302.80556576 Ry
     hartree contribution      =     647.44403327 Ry
     xc contribution           =     -30.07521109 Ry
     ewald contribution        =     525.45480299 Ry

     convergence has been achieved in   7 iterations

     negative rho (up, down):  1.109E-04 0.000E+00

     Forces acting on atoms (cartesian axes, Ry/au):

     atom    1 type  1   force =     0.00000000   -0.00000000    0.00228374
     atom    2 type  3   force =     0.00000000   -0.00000000   -0.00067027
     atom    3 type  2   force =     0.00000000   -0.00000000   -0.00161348

     Total force =     0.002875     Total SCF correction =     0.000181


     Computing stress (Cartesian axis) and pressure


     negative rho (up, down):  1.109E-04 0.000E+00
          total   stress  (Ry/bohr**3)                   (kbar)     P=       -2.13
  -0.00000579   0.00000000   0.00000000           -0.85        0.00        0.00
   0.00000000  -0.00000579   0.00000000            0.00       -0.85        0.00
   0.00000000   0.00000000  -0.00003191            0.00        0.00       -4.69

     Energy error            =      1.1E-04 Ry
     Gradient error          =      2.3E-03 Ry/Bohr

     number of scf cycles    =   5
     number of bfgs steps    =   4

     energy             old  =    -159.9860255747 Ry
     energy             new  =    -159.9861334394 Ry

     CASE: energy            _new < energy            _old

     new trust radius        =       0.0042720909 bohr
     new conv_thr            =       0.0000000011 Ry


ATOMIC_POSITIONS (angstrom)
Nb              -0.0000000000       -0.0000000000       -0.0412877263
Se               1.7000000000        0.9814954600        1.6985848183
S                1.7000000000        0.9814954600       -1.5572970920



     Writing config-only to output data dir ./tmp/candidate_NbSSe.save/ :
     XML data file
     NEW-OLD atomic charge density approx. for the potential

     negative rho (up, down):  1.109E-04 0.000E+00

     total cpu time spent up to now is      104.2 secs

     per-process dynamical memory:   106.8 Mb

     Self-consistent Calculation

     iteration #  1     ecut=    35.00 Ry     beta= 0.35
     Davidson diagonalization with overlap
     ethr =  1.00E-06,  avg # of iterations =  3.0

     Threshold (ethr) on eigenvalues was too large:
     Diagonalizing with lowered threshold

     Davidson diagonalization with overlap
     ethr =  2.42E-08,  avg # of iterations =  3.8

     negative rho (up, down):  1.109E-04 0.000E+00

     total cpu time spent up to now is      106.9 secs

     total energy              =    -159.98613776 Ry
     estimated scf accuracy    <       0.00000747 Ry

     iteration #  2     ecut=    35.00 Ry     beta= 0.35
     Davidson diagonalization with overlap
     ethr =  2.99E-08,  avg # of iterations =  2.5

     negative rho (up, down):  1.109E-04 0.000E+00

     total cpu time spent up to now is      108.6 secs

     total energy              =    -159.98613691 Ry
     estimated scf accuracy    <       0.00003291 Ry

     iteration #  3     ecut=    35.00 Ry     beta= 0.35
     Davidson diagonalization with overlap
     ethr =  2.99E-08,  avg # of iterations =  2.0

     negative rho (up, down):  1.109E-04 0.000E+00

     total cpu time spent up to now is      110.3 secs

     total energy              =    -159.98614074 Ry
     estimated scf accuracy    <       0.00000264 Ry

     iteration #  4     ecut=    35.00 Ry     beta= 0.35
     Davidson diagonalization with overlap
     ethr =  1.06E-08,  avg # of iterations =  2.0

     negative rho (up, down):  1.108E-04 0.000E+00

     total cpu time spent up to now is      111.9 secs

     total energy              =    -159.98614114 Ry
     estimated scf accuracy    <       0.00000016 Ry

     iteration #  5     ecut=    35.00 Ry     beta= 0.35
     Davidson diagonalization with overlap
     ethr =  6.44E-10,  avg # of iterations =  2.8

     negative rho (up, down):  1.109E-04 0.000E+00

     total cpu time spent up to now is      113.5 secs

     total energy              =    -159.98614116 Ry
     estimated scf accuracy    <       0.00000002 Ry

     iteration #  6     ecut=    35.00 Ry     beta= 0.35
     Davidson diagonalization with overlap
     ethr =  8.44E-11,  avg # of iterations =  2.0

     negative rho (up, down):  1.109E-04 0.000E+00

     total cpu time spent up to now is      115.0 secs

     total energy              =    -159.98614116 Ry
     estimated scf accuracy    <          2.6E-09 Ry

     iteration #  7     ecut=    35.00 Ry     beta= 0.35
     Davidson diagonalization with overlap
     ethr =  1.04E-11,  avg # of iterations =  2.8

     negative rho (up, down):  1.108E-04 0.000E+00

     total cpu time spent up to now is      116.6 secs

     End of self-consistent calculation

          k = 0.0000 0.0000 0.0000 (  4205 PWs)   bands (ev):

   -60.7353 -36.8326 -36.7060 -36.7060 -19.2933 -18.1763 -10.6870  -8.0186
    -8.0186  -7.2203  -6.5816  -6.5816  -4.9365  -2.7664  -2.7664  -2.5849
    -2.5849

          k = 0.0000 0.2887 0.0000 (  4222 PWs)   bands (ev):

   -60.7217 -36.8615 -36.7992 -36.7411 -18.6358 -17.9239 -10.0640  -9.2835
    -8.5783  -7.9589  -6.9065  -6.8710  -5.7546  -3.2584  -3.0690  -2.4944
    -1.7658

          k = 0.0000-0.5774 0.0000 (  4236 PWs)   bands (ev):

   -60.7080 -37.0120 -36.7755 -36.7662 -17.8417 -17.6265 -10.8044  -9.8722
    -9.2212  -8.4040  -7.1927  -6.5204  -5.8895  -3.0047  -2.6394  -1.8063
    -1.2155

          k = 0.2500 0.4330 0.0000 (  4280 PWs)   bands (ev):

   -60.7083 -36.9563 -36.8343 -36.7667 -17.8582 -17.6161 -10.1797  -9.8963
    -9.0508  -8.4517  -8.1569  -7.0617  -5.6743  -3.2195  -2.5824  -2.1597
    -1.1017

     the Fermi energy is    -5.7345 ev

!    total energy              =    -159.98614117 Ry
     estimated scf accuracy    <          1.9E-10 Ry
     smearing contrib. (-TS)   =      -0.00416122 Ry
     internal energy E=F+TS    =    -159.98197995 Ry

     The total energy is F=E-TS. E is the sum of the following terms:
     one-electron contribution =   -1302.44013509 Ry
     hartree contribution      =     647.25946889 Ry
     xc contribution           =     -30.07337966 Ry
     ewald contribution        =     525.27206591 Ry

     convergence has been achieved in   7 iterations

     negative rho (up, down):  1.108E-04 0.000E+00

     Forces acting on atoms (cartesian axes, Ry/au):

     atom    1 type  1   force =     0.00000000    0.00000000    0.00025900
     atom    2 type  3   force =     0.00000000   -0.00000000   -0.00023643
     atom    3 type  2   force =     0.00000000   -0.00000000   -0.00002257

     Total force =     0.000351     Total SCF correction =     0.000102
     SCF correction compared to forces is large: reduce conv_thr to get better values


     Computing stress (Cartesian axis) and pressure


     negative rho (up, down):  1.108E-04 0.000E+00
          total   stress  (Ry/bohr**3)                   (kbar)     P=       -2.45
  -0.00000777   0.00000000   0.00000000           -1.14        0.00        0.00
   0.00000000  -0.00000777   0.00000000            0.00       -1.14        0.00
   0.00000000   0.00000000  -0.00003451            0.00        0.00       -5.08

     Energy error            =      7.7E-06 Ry
     Gradient error          =      2.6E-04 Ry/Bohr

     bfgs converged in   6 scf cycles and   5 bfgs steps
     (criteria: energy <  1.0E-04 Ry, force <  1.0E-03 Ry/Bohr)

     End of BFGS Geometry Optimization

     Final energy             =    -159.9861411653 Ry

     File ./tmp/candidate_NbSSe.bfgs deleted, as requested
Begin final coordinates

ATOMIC_POSITIONS (angstrom)
Nb              -0.0000000000       -0.0000000000       -0.0412877263
Se               1.7000000000        0.9814954600        1.6985848183
S                1.7000000000        0.9814954600       -1.5572970920
End final coordinates



     Writing all to output data dir ./tmp/candidate_NbSSe.save/ :
     XML data file, charge density, pseudopotentials, collected wavefunctions

     init_run     :      1.99s CPU      2.36s WALL (       1 calls)
     electrons    :     58.66s CPU     79.48s WALL (       6 calls)
     update_pot   :      0.35s CPU      0.41s WALL (       5 calls)
     forces       :      3.65s CPU      5.05s WALL (       6 calls)
     stress       :     27.98s CPU     32.32s WALL (       6 calls)

     Called by init_run:
     wfcinit      :      0.18s CPU      0.19s WALL (       1 calls)
     potinit      :      0.24s CPU      0.27s WALL (       1 calls)
     hinit0       :      1.13s CPU      1.16s WALL (       1 calls)

     Called by electrons:
     c_bands      :     10.84s CPU     10.91s WALL (      49 calls)
     sum_band     :     25.67s CPU     36.63s WALL (      49 calls)
     v_of_rho     :      3.36s CPU      3.48s WALL (      53 calls)
     newd         :     20.90s CPU     32.03s WALL (      53 calls)
     mix_rho      :      0.33s CPU      0.34s WALL (      49 calls)

     Called by c_bands:
     init_us_2    :      0.64s CPU      0.66s WALL (     444 calls)
     cegterg      :      9.77s CPU      9.82s WALL (     196 calls)

     Called by *egterg:
     cdiaghg      :      0.19s CPU      0.19s WALL (     673 calls)
     h_psi        :      7.78s CPU      7.82s WALL (     705 calls)
     s_psi        :      0.36s CPU      0.36s WALL (     705 calls)
     g_psi        :      0.10s CPU      0.10s WALL (     505 calls)

     Called by h_psi:
     h_psi:calbec :      0.47s CPU      0.48s WALL (     705 calls)
     vloc_psi     :      6.86s CPU      6.90s WALL (     705 calls)
                                        0.00s GPU  (     705 calls)
     add_vuspsi   :      0.38s CPU      0.39s WALL (     705 calls)

     General routines
     calbec       :      0.96s CPU      0.97s WALL (    1309 calls)
     fft          :      2.12s CPU      2.15s WALL (     834 calls)
     ffts         :      0.20s CPU      0.20s WALL (     102 calls)
     fftw         :      6.86s CPU      6.90s WALL (   20014 calls)
     interpolate  :      0.32s CPU      0.32s WALL (      53 calls)

     Parallel routines

     PWSCF        :   1m34.85s CPU   2m 3.03s WALL


   This run was terminated on:  13:18:36  10May2026            

=------------------------------------------------------------------------------=
   JOB DONE.
=------------------------------------------------------------------------------=
