
     Program PWSCF v.7.5 starts on 10May2026 at 13:19:14 

     This program is part of the open-source Quantum ESPRESSO suite
     for quantum simulation of materials; please cite
         "P. Giannozzi et al., J. Phys.:Condens. Matter 21 395502 (2009);
         "P. Giannozzi et al., J. Phys.:Condens. Matter 29 465901 (2017);
         "P. Giannozzi et al., J. Chem. Phys. 152 154105 (2020);
          URL http://www.quantum-espresso.org", 
     in publications or presentations arising from this work. More details at
     http://www.quantum-espresso.org/quote

     Parallel version (MPI & OpenMP), running on       1 processor cores
     Number of MPI processes:                 1
     Threads/MPI process:                     1

     MPI processes distributed on     1 nodes
     6989 MiB available memory on the printing compute node when the environment starts

     Reading input from candidate_NbSSe/02_scf_relaxed.in

     Current dimensions of program PWSCF are:
     Max number of different atomic species (ntypx) = 10
     Max number of k-points (npk) =  40000
     Max angular momentum in pseudopotentials (lmaxx) =  4
     file Nb.pbe-spn-rrkjus_psl.1.0.0.UPF: wavefunction(s)  4S 4P renormalized
     Message from routine setup:
     using ibrav=0 with symmetry is DISCOURAGED, use correct ibrav instead

     Subspace diagonalization in iterative solution of the eigenvalue problem:
     a serial algorithm will be used


     G-vector sticks info
     --------------------
     sticks:   dense  smooth     PW     G-vecs:    dense   smooth      PW
     Sum         805     397    121                96073    33909    5651

     Using Slab Decomposition



     bravais-lattice index     =            0
     lattice parameter (alat)  =       6.4251  a.u.
     unit-cell volume          =    1216.0672 (a.u.)^3
     number of atoms/cell      =            3
     number of atomic types    =            3
     number of electrons       =        25.00
     number of Kohn-Sham states=           17
     kinetic-energy cutoff     =      35.0000  Ry
     charge density cutoff     =     280.0000  Ry
     scf convergence threshold =      1.0E-07
     mixing beta               =       0.3500
     number of iterations used =            8  plain     mixing
     Exchange-correlation= PBE
                           (   1   4   3   4   0   0   0)

     celldm(1)=   6.425069  celldm(2)=   0.000000  celldm(3)=   0.000000
     celldm(4)=   0.000000  celldm(5)=   0.000000  celldm(6)=   0.000000

     crystal axes: (cart. coord. in units of alat)
               a(1) = (   1.000000   0.000000   0.000000 )  
               a(2) = (  -0.500000   0.866025   0.000000 )  
               a(3) = (   0.000000   0.000000   5.294118 )  

     reciprocal axes: (cart. coord. in units 2 pi/alat)
               b(1) = (  1.000000  0.577350 -0.000000 )  
               b(2) = (  0.000000  1.154701  0.000000 )  
               b(3) = (  0.000000 -0.000000  0.188889 )  


     PseudoPot. # 1 for Nb read from file:
     ./pseudos/Nb.pbe-spn-rrkjus_psl.1.0.0.UPF
     MD5 check sum: 6ee677a9f002bd3e3657f443f129faad
     Pseudo is Ultrasoft + core correction, Zval = 13.0
     Generated using &quot;atomic&quot; code by A. Dal Corso  v.6.2.2
     Using radial grid of 1227 points,  6 beta functions with: 
                l(1) =   0
                l(2) =   0
                l(3) =   1
                l(4) =   1
                l(5) =   2
                l(6) =   2
     Q(r) pseudized with 0 coefficients 


     PseudoPot. # 2 for S  read from file:
     ./pseudos/S.pbe-n-rrkjus_psl.1.0.0.UPF
     MD5 check sum: 9d0fe39aa2a799ea84730884c9b010f4
     Pseudo is Ultrasoft + core correction, Zval =  6.0
     Generated using &quot;atomic&quot; code by A. Dal Corso  v.6.3
     Using radial grid of 1151 points,  6 beta functions with: 
                l(1) =   0
                l(2) =   0
                l(3) =   1
                l(4) =   1
                l(5) =   2
                l(6) =   2
     Q(r) pseudized with 0 coefficients 


     PseudoPot. # 3 for Se read from file:
     ./pseudos/Se.pbe-n-rrkjus_psl.1.0.0.UPF
     MD5 check sum: 8e2a6847b5cb9faee9497ebb573e71ea
     Pseudo is Ultrasoft + core correction, Zval =  6.0
     Generated using &quot;atomic&quot; code by A. Dal Corso  v.6.3
     Using radial grid of 1211 points,  4 beta functions with: 
                l(1) =   0
                l(2) =   0
                l(3) =   1
                l(4) =   1
     Q(r) pseudized with 0 coefficients 


     atomic species   valence    mass     pseudopotential
     Nb               13.00    92.90600     Nb( 1.00)
     S                 6.00    32.06000     S ( 1.00)
     Se                6.00    78.97100     Se( 1.00)

      6 Sym. Ops. (no inversion) found



   Cartesian axes

     site n.     atom                  positions (alat units)
         1        Nb     tau(   1) = (  -0.0000000  -0.0000000  -0.0121434  )
         2        Se     tau(   2) = (   0.5000000   0.2886751   0.4995838  )
         3        S      tau(   3) = (   0.5000000   0.2886751  -0.4580286  )

     number of k points=     4  Methfessel-Paxton smearing, width (Ry)=  0.0200
                       cart. coord. in units 2pi/alat
        k(    1) = (   0.0000000   0.0000000   0.0000000), wk =   0.1250000
        k(    2) = (   0.0000000   0.2886751   0.0000000), wk =   0.7500000
        k(    3) = (   0.0000000  -0.5773503   0.0000000), wk =   0.3750000
        k(    4) = (   0.2500000   0.4330127   0.0000000), wk =   0.7500000

     Dense  grid:    96073 G-vectors     FFT dimensions: (  36,  36, 192)

     Smooth grid:    33909 G-vectors     FFT dimensions: (  25,  25, 135)

     Estimated max dynamical RAM per process >     369.48 MB
 ----2D----2D----2D----2D----2D----2D----2D----2D----2D----2D----2D----2D
  The code is running with the 2D cutoff
  Please refer to:
  Sohier, T., Calandra, M., & Mauri, F. (2017), 
  Density functional perturbation theory for gated two-dimensional heterostructures:
  Theoretical developments and application to flexural phonons in graphene.
  Physical Review B, 96(7), 75448. https://doi.org/10.1103/PhysRevB.96.075448
 ----2D----2D----2D----2D----2D----2D----2D----2D----2D----2D----2D----2D

     Initial potential from superposition of free atoms

     starting charge      24.9986, renormalised to      25.0000

     negative rho (up, down):  1.424E-04 0.000E+00
     Starting wfcs are   21 randomized atomic wfcs

     total cpu time spent up to now is        2.5 secs

     per-process dynamical memory:    78.3 Mb

     Self-consistent Calculation

     iteration #  1     ecut=    35.00 Ry     beta= 0.35
     Davidson diagonalization with overlap
     ethr =  1.00E-02,  avg # of iterations =  2.5

     Threshold (ethr) on eigenvalues was too large:
     Diagonalizing with lowered threshold

     Davidson diagonalization with overlap
     ethr =  3.32E-04,  avg # of iterations =  3.8

     negative rho (up, down):  1.195E-04 0.000E+00

     total cpu time spent up to now is        5.0 secs

     total energy              =    -159.97075391 Ry
     estimated scf accuracy    <       0.10745392 Ry

     iteration #  2     ecut=    35.00 Ry     beta= 0.35
     Davidson diagonalization with overlap
     ethr =  4.30E-04,  avg # of iterations =  2.0

     negative rho (up, down):  1.154E-04 0.000E+00

     total cpu time spent up to now is        6.6 secs

     total energy              =    -159.95189108 Ry
     estimated scf accuracy    <       0.15741279 Ry

     iteration #  3     ecut=    35.00 Ry     beta= 0.35
     Davidson diagonalization with overlap
     ethr =  4.30E-04,  avg # of iterations =  2.0

     negative rho (up, down):  1.058E-04 0.000E+00

     total cpu time spent up to now is        8.2 secs

     total energy              =    -159.97911928 Ry
     estimated scf accuracy    <       0.07474852 Ry

     iteration #  4     ecut=    35.00 Ry     beta= 0.35
     Davidson diagonalization with overlap
     ethr =  2.99E-04,  avg # of iterations =  1.0

     negative rho (up, down):  1.036E-04 0.000E+00

     total cpu time spent up to now is        9.8 secs

     total energy              =    -159.98537190 Ry
     estimated scf accuracy    <       0.00271537 Ry

     iteration #  5     ecut=    35.00 Ry     beta= 0.35
     Davidson diagonalization with overlap
     ethr =  1.09E-05,  avg # of iterations =  3.5

     negative rho (up, down):  1.033E-04 0.000E+00

     total cpu time spent up to now is       11.5 secs

     total energy              =    -159.98610976 Ry
     estimated scf accuracy    <       0.00435863 Ry

     iteration #  6     ecut=    35.00 Ry     beta= 0.35
     Davidson diagonalization with overlap
     ethr =  1.09E-05,  avg # of iterations =  1.0

     negative rho (up, down):  1.062E-04 0.000E+00

     total cpu time spent up to now is       13.1 secs

     total energy              =    -159.98593098 Ry
     estimated scf accuracy    <       0.00134638 Ry

     iteration #  7     ecut=    35.00 Ry     beta= 0.35
     Davidson diagonalization with overlap
     ethr =  5.39E-06,  avg # of iterations =  1.8

     negative rho (up, down):  1.103E-04 0.000E+00

     total cpu time spent up to now is       14.7 secs

     total energy              =    -159.98613310 Ry
     estimated scf accuracy    <       0.00004756 Ry

     iteration #  8     ecut=    35.00 Ry     beta= 0.35
     Davidson diagonalization with overlap
     ethr =  1.90E-07,  avg # of iterations =  2.2

     negative rho (up, down):  1.107E-04 0.000E+00

     total cpu time spent up to now is       16.4 secs

     total energy              =    -159.98614003 Ry
     estimated scf accuracy    <       0.00000616 Ry

     iteration #  9     ecut=    35.00 Ry     beta= 0.35
     Davidson diagonalization with overlap
     ethr =  2.46E-08,  avg # of iterations =  2.0

     negative rho (up, down):  1.113E-04 0.000E+00

     total cpu time spent up to now is       18.1 secs

     total energy              =    -159.98614102 Ry
     estimated scf accuracy    <       0.00000036 Ry

     iteration # 10     ecut=    35.00 Ry     beta= 0.35
     Davidson diagonalization with overlap
     ethr =  1.45E-09,  avg # of iterations =  4.0

     negative rho (up, down):  1.112E-04 0.000E+00

     total cpu time spent up to now is       19.8 secs

     total energy              =    -159.98614107 Ry
     estimated scf accuracy    <       0.00000032 Ry

     iteration # 11     ecut=    35.00 Ry     beta= 0.35
     Davidson diagonalization with overlap
     ethr =  1.28E-09,  avg # of iterations =  2.0

     negative rho (up, down):  1.108E-04 0.000E+00

     total cpu time spent up to now is       21.6 secs

     End of self-consistent calculation

          k = 0.0000 0.0000 0.0000 (  4205 PWs)   bands (ev):

   -60.7349 -36.8324 -36.7056 -36.7056 -19.2936 -18.1766 -10.6872  -8.0188
    -8.0188  -7.2204  -6.5817  -6.5817  -4.9365  -2.7664  -2.7664  -2.5849
    -2.5849

          k = 0.0000 0.2887 0.0000 (  4222 PWs)   bands (ev):

   -60.7213 -36.8611 -36.7990 -36.7407 -18.6360 -17.9242 -10.0643  -9.2838
    -8.5783  -7.9592  -6.9065  -6.8711  -5.7547  -3.2583  -3.0689  -2.4945
    -1.7658

          k = 0.0000-0.5774 0.0000 (  4236 PWs)   bands (ev):

   -60.7075 -37.0116 -36.7751 -36.7660 -17.8420 -17.6268 -10.8046  -9.8723
    -9.2214  -8.4043  -7.1928  -6.5205  -5.8895  -3.0045  -2.6393  -1.8064
    -1.2155

          k = 0.2500 0.4330 0.0000 (  4280 PWs)   bands (ev):

   -60.7079 -36.9560 -36.8340 -36.7665 -17.8585 -17.6164 -10.1799  -9.8964
    -9.0510  -8.4520  -8.1570  -7.0618  -5.6743  -3.2195  -2.5822  -2.1597
    -1.1017

     the Fermi energy is    -5.7345 ev

!    total energy              =    -159.98614113 Ry
     estimated scf accuracy    <       0.00000005 Ry
     smearing contrib. (-TS)   =      -0.00416056 Ry
     internal energy E=F+TS    =    -159.98198057 Ry

     The total energy is F=E-TS. E is the sum of the following terms:
     one-electron contribution =   -1302.43882345 Ry
     hartree contribution      =     647.25811560 Ry
     xc contribution           =     -30.07333864 Ry
     ewald contribution        =     525.27206591 Ry

     convergence has been achieved in  11 iterations

     negative rho (up, down):  1.108E-04 0.000E+00

     Forces acting on atoms (cartesian axes, Ry/au):

     atom    1 type  1   force =     0.00000000    0.00000000    0.00025229
     atom    2 type  3   force =     0.00000000   -0.00000000   -0.00020872
     atom    3 type  2   force =     0.00000000   -0.00000000   -0.00004357

     Total force =     0.000330     Total SCF correction =     0.000923
     SCF correction compared to forces is large: reduce conv_thr to get better values


     Computing stress (Cartesian axis) and pressure


     negative rho (up, down):  1.108E-04 0.000E+00
          total   stress  (Ry/bohr**3)                   (kbar)     P=       -2.45
  -0.00000764   0.00000000   0.00000000           -1.12        0.00        0.00
   0.00000000  -0.00000764  -0.00000000            0.00       -1.12       -0.00
   0.00000000  -0.00000000  -0.00003460            0.00       -0.00       -5.09


     Writing all to output data dir ./tmp/candidate_NbSSe_relaxed.save/ :
     XML data file, charge density, pseudopotentials, collected wavefunctions

     init_run     :      1.93s CPU      2.30s WALL (       1 calls)
     electrons    :     14.27s CPU     19.09s WALL (       1 calls)
     forces       :      0.73s CPU      1.04s WALL (       1 calls)
     stress       :      4.86s CPU      5.57s WALL (       1 calls)

     Called by init_run:
     wfcinit      :      0.18s CPU      0.19s WALL (       1 calls)
     potinit      :      0.24s CPU      0.26s WALL (       1 calls)
     hinit0       :      1.09s CPU      1.12s WALL (       1 calls)

     Called by electrons:
     c_bands      :      2.55s CPU      2.58s WALL (      12 calls)
     sum_band     :      6.32s CPU      8.84s WALL (      12 calls)
     v_of_rho     :      0.76s CPU      0.79s WALL (      12 calls)
     newd         :      4.91s CPU      7.48s WALL (      12 calls)
     mix_rho      :      0.09s CPU      0.09s WALL (      12 calls)

     Called by c_bands:
     init_us_2    :      0.17s CPU      0.17s WALL (     108 calls)
     cegterg      :      2.27s CPU      2.29s WALL (      48 calls)

     Called by *egterg:
     cdiaghg      :      0.05s CPU      0.05s WALL (     155 calls)
     h_psi        :      1.93s CPU      1.96s WALL (     163 calls)
     s_psi        :      0.09s CPU      0.09s WALL (     163 calls)
     g_psi        :      0.02s CPU      0.02s WALL (     111 calls)

     Called by h_psi:
     h_psi:calbec :      0.11s CPU      0.12s WALL (     163 calls)
     vloc_psi     :      1.71s CPU      1.73s WALL (     163 calls)
                                        0.00s GPU  (     163 calls)
     add_vuspsi   :      0.09s CPU      0.09s WALL (     163 calls)

     General routines
     calbec       :      0.22s CPU      0.22s WALL (     279 calls)
     fft          :      0.79s CPU      0.81s WALL (     180 calls)
     ffts         :      0.13s CPU      0.13s WALL (      24 calls)
     fftw         :      1.68s CPU      1.70s WALL (    4852 calls)
     interpolate  :      0.16s CPU      0.16s WALL (      12 calls)

     Parallel routines

     PWSCF        :     21.96s CPU     28.22s WALL


   This run was terminated on:  13:19:42  10May2026            

=------------------------------------------------------------------------------=
   JOB DONE.
=------------------------------------------------------------------------------=
