
     Program PWSCF v.7.5 starts on 10May2026 at 13:49:14 

     This program is part of the open-source Quantum ESPRESSO suite
     for quantum simulation of materials; please cite
         "P. Giannozzi et al., J. Phys.:Condens. Matter 21 395502 (2009);
         "P. Giannozzi et al., J. Phys.:Condens. Matter 29 465901 (2017);
         "P. Giannozzi et al., J. Chem. Phys. 152 154105 (2020);
          URL http://www.quantum-espresso.org", 
     in publications or presentations arising from this work. More details at
     http://www.quantum-espresso.org/quote

     Parallel version (MPI & OpenMP), running on      16 processor cores
     Number of MPI processes:                 1
     Threads/MPI process:                    16

     MPI processes distributed on     1 nodes
     7001 MiB available memory on the printing compute node when the environment starts

     Reading input from candidate_NbSSe/03_h_ads_stop_relax.in

     Current dimensions of program PWSCF are:
     Max number of different atomic species (ntypx) = 10
     Max number of k-points (npk) =  40000
     Max angular momentum in pseudopotentials (lmaxx) =  4
     file Nb.pbe-spn-rrkjus_psl.1.0.0.UPF: wavefunction(s)  4S 4P renormalized
     Message from routine setup:
     using ibrav=0 with symmetry is DISCOURAGED, use correct ibrav instead

     Subspace diagonalization in iterative solution of the eigenvalue problem:
     a serial algorithm will be used


     G-vector sticks info
     --------------------
     sticks:   dense  smooth     PW     G-vecs:    dense   smooth      PW
     Sum         805     397    121                96073    33909    5651

     Using Slab Decomposition



     bravais-lattice index     =            0
     lattice parameter (alat)  =       6.4251  a.u.
     unit-cell volume          =    1216.0672 (a.u.)^3
     number of atoms/cell      =            4
     number of atomic types    =            4
     number of electrons       =        26.00
     number of Kohn-Sham states=           17
     kinetic-energy cutoff     =      35.0000  Ry
     charge density cutoff     =     280.0000  Ry
     scf convergence threshold =      1.0E-07
     mixing beta               =       0.3500
     number of iterations used =            8  plain     mixing
     energy convergence thresh.=      1.0E-04
     force convergence thresh. =      1.0E-03
     Exchange-correlation= PBE
                           (   1   4   3   4   0   0   0)
     nstep                     =           50


     celldm(1)=   6.425069  celldm(2)=   0.000000  celldm(3)=   0.000000
     celldm(4)=   0.000000  celldm(5)=   0.000000  celldm(6)=   0.000000

     crystal axes: (cart. coord. in units of alat)
               a(1) = (   1.000000   0.000000   0.000000 )  
               a(2) = (  -0.500000   0.866025   0.000000 )  
               a(3) = (   0.000000   0.000000   5.294118 )  

     reciprocal axes: (cart. coord. in units 2 pi/alat)
               b(1) = (  1.000000  0.577350 -0.000000 )  
               b(2) = (  0.000000  1.154701  0.000000 )  
               b(3) = (  0.000000 -0.000000  0.188889 )  


     PseudoPot. # 1 for H  read from file:
     ./pseudos/H.pbe-rrkjus_psl.1.0.0.UPF
     MD5 check sum: 3f4114867bd07edc7f1424d066fc1888
     Pseudo is Ultrasoft, Zval =  1.0
     Generated using &quot;atomic&quot; code by A. Dal Corso  v.6.3MaX
     Using radial grid of  929 points,  2 beta functions with: 
                l(1) =   0
                l(2) =   0
     Q(r) pseudized with 0 coefficients 


     PseudoPot. # 2 for Nb read from file:
     ./pseudos/Nb.pbe-spn-rrkjus_psl.1.0.0.UPF
     MD5 check sum: 6ee677a9f002bd3e3657f443f129faad
     Pseudo is Ultrasoft + core correction, Zval = 13.0
     Generated using &quot;atomic&quot; code by A. Dal Corso  v.6.2.2
     Using radial grid of 1227 points,  6 beta functions with: 
                l(1) =   0
                l(2) =   0
                l(3) =   1
                l(4) =   1
                l(5) =   2
                l(6) =   2
     Q(r) pseudized with 0 coefficients 


     PseudoPot. # 3 for S  read from file:
     ./pseudos/S.pbe-n-rrkjus_psl.1.0.0.UPF
     MD5 check sum: 9d0fe39aa2a799ea84730884c9b010f4
     Pseudo is Ultrasoft + core correction, Zval =  6.0
     Generated using &quot;atomic&quot; code by A. Dal Corso  v.6.3
     Using radial grid of 1151 points,  6 beta functions with: 
                l(1) =   0
                l(2) =   0
                l(3) =   1
                l(4) =   1
                l(5) =   2
                l(6) =   2
     Q(r) pseudized with 0 coefficients 


     PseudoPot. # 4 for Se read from file:
     ./pseudos/Se.pbe-n-rrkjus_psl.1.0.0.UPF
     MD5 check sum: 8e2a6847b5cb9faee9497ebb573e71ea
     Pseudo is Ultrasoft + core correction, Zval =  6.0
     Generated using &quot;atomic&quot; code by A. Dal Corso  v.6.3
     Using radial grid of 1211 points,  4 beta functions with: 
                l(1) =   0
                l(2) =   0
                l(3) =   1
                l(4) =   1
     Q(r) pseudized with 0 coefficients 


     atomic species   valence    mass     pseudopotential
     H                 1.00     1.00800     H ( 1.00)
     Nb               13.00    92.90600     Nb( 1.00)
     S                 6.00    32.06000     S ( 1.00)
     Se                6.00    78.97100     Se( 1.00)

      6 Sym. Ops. (no inversion) found



   Cartesian axes

     site n.     atom                  positions (alat units)
         1        Nb     tau(   1) = (  -0.0000000  -0.0000000  -0.0121434  )
         2        Se     tau(   2) = (   0.5000000   0.2886751   0.4995838  )
         3        S      tau(   3) = (   0.5000000   0.2886751  -0.4580286  )
         4        H      tau(   4) = (   0.5000000   0.2886751  -0.7815580  )

     number of k points=     4  Methfessel-Paxton smearing, width (Ry)=  0.0200
                       cart. coord. in units 2pi/alat
        k(    1) = (   0.0000000   0.0000000   0.0000000), wk =   0.1250000
        k(    2) = (   0.0000000   0.2886751   0.0000000), wk =   0.7500000
        k(    3) = (   0.0000000  -0.5773503   0.0000000), wk =   0.3750000
        k(    4) = (   0.2500000   0.4330127   0.0000000), wk =   0.7500000

     Dense  grid:    96073 G-vectors     FFT dimensions: (  36,  36, 192)

     Smooth grid:    33909 G-vectors     FFT dimensions: (  25,  25, 135)

     Estimated max dynamical RAM per process >     373.89 MB
 ----2D----2D----2D----2D----2D----2D----2D----2D----2D----2D----2D----2D
  The code is running with the 2D cutoff
  Please refer to:
  Sohier, T., Calandra, M., & Mauri, F. (2017), 
  Density functional perturbation theory for gated two-dimensional heterostructures:
  Theoretical developments and application to flexural phonons in graphene.
  Physical Review B, 96(7), 75448. https://doi.org/10.1103/PhysRevB.96.075448
 ----2D----2D----2D----2D----2D----2D----2D----2D----2D----2D----2D----2D

     Initial potential from superposition of free atoms

     starting charge      25.9986, renormalised to      26.0000

     negative rho (up, down):  1.242E-04 0.000E+00
     Starting wfcs are   22 randomized atomic wfcs

     total cpu time spent up to now is        4.5 secs

     per-process dynamical memory:    87.3 Mb

     Self-consistent Calculation

     iteration #  1     ecut=    35.00 Ry     beta= 0.35
     Davidson diagonalization with overlap
     ethr =  1.00E-02,  avg # of iterations =  2.5

     Threshold (ethr) on eigenvalues was too large:
     Diagonalizing with lowered threshold

     Davidson diagonalization with overlap
     ethr =  9.00E-04,  avg # of iterations =  2.5

     negative rho (up, down):  8.487E-05 0.000E+00

     total cpu time spent up to now is       14.4 secs

     total energy              =    -160.99127144 Ry
     estimated scf accuracy    <       0.23639727 Ry

     iteration #  2     ecut=    35.00 Ry     beta= 0.35
     Davidson diagonalization with overlap
     ethr =  9.09E-04,  avg # of iterations =  3.8

     negative rho (up, down):  9.107E-05 0.000E+00

     total cpu time spent up to now is       22.0 secs

     total energy              =    -161.00457816 Ry
     estimated scf accuracy    <       0.14963407 Ry

     iteration #  3     ecut=    35.00 Ry     beta= 0.35
     Davidson diagonalization with overlap
     ethr =  5.76E-04,  avg # of iterations =  2.0

     negative rho (up, down):  9.007E-05 0.000E+00

     total cpu time spent up to now is       26.9 secs

     total energy              =    -161.01458206 Ry
     estimated scf accuracy    <       0.06716811 Ry

     iteration #  4     ecut=    35.00 Ry     beta= 0.35
     Davidson diagonalization with overlap
     ethr =  2.58E-04,  avg # of iterations =  2.5

     negative rho (up, down):  8.735E-05 0.000E+00

     total cpu time spent up to now is       32.1 secs

     total energy              =    -161.02146802 Ry
     estimated scf accuracy    <       0.03785324 Ry

     iteration #  5     ecut=    35.00 Ry     beta= 0.35
     Davidson diagonalization with overlap
     ethr =  1.46E-04,  avg # of iterations =  1.8

     negative rho (up, down):  9.686E-05 0.000E+00

     total cpu time spent up to now is       37.4 secs

     total energy              =    -161.02533077 Ry
     estimated scf accuracy    <       0.00120339 Ry

     iteration #  6     ecut=    35.00 Ry     beta= 0.35
     Davidson diagonalization with overlap
     ethr =  4.63E-06,  avg # of iterations =  8.2

     negative rho (up, down):  1.034E-04 0.000E+00

     total cpu time spent up to now is       46.7 secs

     total energy              =    -161.02560058 Ry
     estimated scf accuracy    <       0.00082795 Ry

     iteration #  7     ecut=    35.00 Ry     beta= 0.35
     Davidson diagonalization with overlap
     ethr =  3.18E-06,  avg # of iterations =  3.5

     negative rho (up, down):  1.041E-04 0.000E+00

     total cpu time spent up to now is       53.5 secs

     total energy              =    -161.02576142 Ry
     estimated scf accuracy    <       0.00035154 Ry

     iteration #  8     ecut=    35.00 Ry     beta= 0.35
     Davidson diagonalization with overlap
     ethr =  1.35E-06,  avg # of iterations =  3.5

     negative rho (up, down):  1.039E-04 0.000E+00

     total cpu time spent up to now is       59.7 secs

     total energy              =    -161.02580711 Ry
     estimated scf accuracy    <       0.00001341 Ry

     iteration #  9     ecut=    35.00 Ry     beta= 0.35
     Davidson diagonalization with overlap
     ethr =  5.16E-08,  avg # of iterations =  3.2

     negative rho (up, down):  1.033E-04 0.000E+00

     total cpu time spent up to now is       65.8 secs

     total energy              =    -161.02580976 Ry
     estimated scf accuracy    <       0.00000152 Ry

     iteration # 10     ecut=    35.00 Ry     beta= 0.35
     Davidson diagonalization with overlap
     ethr =  5.86E-09,  avg # of iterations =  2.8

     negative rho (up, down):  1.033E-04 0.000E+00

     total cpu time spent up to now is       71.5 secs

     total energy              =    -161.02581004 Ry
     estimated scf accuracy    <       0.00000015 Ry

     iteration # 11     ecut=    35.00 Ry     beta= 0.35
     Davidson diagonalization with overlap
     ethr =  5.87E-10,  avg # of iterations =  4.2

     negative rho (up, down):  1.029E-04 0.000E+00

     total cpu time spent up to now is       78.0 secs

     End of self-consistent calculation

          k = 0.0000 0.0000 0.0000 (  4205 PWs)   bands (ev):

   -58.6012 -34.7632 -34.5863 -34.5863 -20.1672 -16.8926 -12.5034  -7.1020
    -7.0074  -7.0074  -4.7510  -4.7510  -4.1340  -2.0213  -1.6418  -1.6418
    -0.7804

          k = 0.0000 0.2887 0.0000 (  4222 PWs)   bands (ev):

   -58.5872 -34.7500 -34.7255 -34.6225 -19.8496 -16.3804 -12.2313  -8.6752
    -7.1859  -7.0432  -6.0975  -4.9236  -4.2505  -2.3002  -1.5362  -1.3369
    -0.4222

          k = 0.0000-0.5774 0.0000 (  4236 PWs)   bands (ev):

   -58.5731 -34.9048 -34.6916 -34.6579 -19.5121 -15.7388 -12.0199  -9.9138
    -8.0588  -7.5235  -6.4670  -4.8424  -4.3823  -1.0712  -0.8122  -0.7105
     0.1883

          k = 0.2500 0.4330 0.0000 (  4280 PWs)   bands (ev):

   -58.5734 -34.8474 -34.7187 -34.6920 -19.5142 -15.7457 -11.9837  -9.4462
    -8.4443  -7.4158  -6.3526  -5.8973  -3.9352  -1.9698  -1.0730  -0.6308
     0.1425

     the Fermi energy is    -3.1176 ev

!    total energy              =    -161.02581005 Ry
     estimated scf accuracy    <       0.00000004 Ry
     smearing contrib. (-TS)   =       0.00000869 Ry
     internal energy E=F+TS    =    -161.02581874 Ry

     The total energy is F=E-TS. E is the sum of the following terms:
     one-electron contribution =   -1370.33176005 Ry
     hartree contribution      =     682.61667628 Ry
     xc contribution           =     -31.02785282 Ry
     ewald contribution        =     557.71711785 Ry

     convergence has been achieved in  11 iterations

     negative rho (up, down):  1.029E-04 0.000E+00

     Forces acting on atoms (cartesian axes, Ry/au):

     atom    1 type  2   force =     0.00000000    0.00000000    0.00554287
     atom    2 type  4   force =     0.00000000    0.00000000   -0.02073251
     atom    3 type  3   force =     0.00000000    0.00000000    0.50604706
     atom    4 type  1   force =     0.00000000   -0.00000000   -0.49085742

     Total force =     0.705326     Total SCF correction =     0.000658


     Computing stress (Cartesian axis) and pressure


     negative rho (up, down):  1.029E-04 0.000E+00
          total   stress  (Ry/bohr**3)                   (kbar)     P=       38.07
   0.00003358   0.00000000   0.00000000            4.94        0.00        0.00
   0.00000000   0.00003358   0.00000000            0.00        4.94        0.00
   0.00000000   0.00000000   0.00070928            0.00        0.00      104.34


     BFGS Geometry Optimization
     Energy error            =      5.0E-01 Ry
     Gradient error          =      5.1E-01 Ry/Bohr

     number of scf cycles    =   1
     number of bfgs steps    =   0

     energy             new  =    -161.0258100514 Ry

     new trust radius        =       0.5000000000 bohr
     new conv_thr            =       0.0000001000 Ry


ATOMIC_POSITIONS (angstrom)
Nb              -0.0000000000        0.0000000000       -0.0383896163
Se               1.7000000000        0.9814954600        1.6877447455
S                1.7000000000        0.9814954600       -1.2927084865
H                1.7000000000        0.9814954600       -2.9139437347



     Writing config-only to output data dir ./tmp/candidate_NbSSe_H_stop.save/ :
     XML data file
     NEW-OLD atomic charge density approx. for the potential

     negative rho (up, down):  8.922E-05 0.000E+00

     total cpu time spent up to now is       86.7 secs

     per-process dynamical memory:   115.2 Mb

     Self-consistent Calculation

     iteration #  1     ecut=    35.00 Ry     beta= 0.35
     Davidson diagonalization with overlap
     c_bands:  1 eigenvalues not converged
     c_bands:  1 eigenvalues not converged
     c_bands:  1 eigenvalues not converged
     ethr =  1.00E-06,  avg # of iterations = 20.0

     negative rho (up, down):  8.562E-05 0.000E+00

     total cpu time spent up to now is      105.9 secs

     total energy              =    -161.06350406 Ry
     estimated scf accuracy    <       0.07811392 Ry

     iteration #  2     ecut=    35.00 Ry     beta= 0.35
     Davidson diagonalization with overlap
     ethr =  3.00E-04,  avg # of iterations =  2.2

     negative rho (up, down):  1.045E-04 0.000E+00

     total cpu time spent up to now is      111.7 secs

     total energy              =    -161.05666015 Ry
     estimated scf accuracy    <       0.09870233 Ry

     iteration #  3     ecut=    35.00 Ry     beta= 0.35
     Davidson diagonalization with overlap
     ethr =  3.00E-04,  avg # of iterations =  2.2

     negative rho (up, down):  8.928E-05 0.000E+00

     total cpu time spent up to now is      116.6 secs

     total energy              =    -161.07009922 Ry
     estimated scf accuracy    <       0.03824176 Ry

     iteration #  4     ecut=    35.00 Ry     beta= 0.35
     Davidson diagonalization with overlap
     ethr =  1.47E-04,  avg # of iterations =  2.0

     negative rho (up, down):  8.615E-05 0.000E+00

     total cpu time spent up to now is      121.1 secs

     total energy              =    -161.07532377 Ry
     estimated scf accuracy    <       0.00627257 Ry

     iteration #  5     ecut=    35.00 Ry     beta= 0.35
     Davidson diagonalization with overlap
     ethr =  2.41E-05,  avg # of iterations =  2.0

     negative rho (up, down):  8.677E-05 0.000E+00

     total cpu time spent up to now is      125.8 secs

     total energy              =    -161.07641829 Ry
     estimated scf accuracy    <       0.00068007 Ry

     iteration #  6     ecut=    35.00 Ry     beta= 0.35
     Davidson diagonalization with overlap
     ethr =  2.62E-06,  avg # of iterations =  3.2

     negative rho (up, down):  9.304E-05 0.000E+00

     total cpu time spent up to now is      131.5 secs

     total energy              =    -161.07651489 Ry
     estimated scf accuracy    <       0.00011927 Ry

     iteration #  7     ecut=    35.00 Ry     beta= 0.35
     Davidson diagonalization with overlap
     ethr =  4.59E-07,  avg # of iterations =  2.5

     negative rho (up, down):  9.108E-05 0.000E+00

     total cpu time spent up to now is      136.4 secs

     total energy              =    -161.07652733 Ry
     estimated scf accuracy    <       0.00000847 Ry

     iteration #  8     ecut=    35.00 Ry     beta= 0.35
     Davidson diagonalization with overlap
     ethr =  3.26E-08,  avg # of iterations =  4.2

     negative rho (up, down):  8.950E-05 0.000E+00

     total cpu time spent up to now is      143.3 secs

     total energy              =    -161.07652884 Ry
     estimated scf accuracy    <       0.00000123 Ry

     iteration #  9     ecut=    35.00 Ry     beta= 0.35
     Davidson diagonalization with overlap
     ethr =  4.73E-09,  avg # of iterations =  3.0

     negative rho (up, down):  8.865E-05 0.000E+00

     total cpu time spent up to now is      148.8 secs

     total energy              =    -161.07652913 Ry
     estimated scf accuracy    <       0.00000022 Ry

     iteration # 10     ecut=    35.00 Ry     beta= 0.35
     Davidson diagonalization with overlap
     ethr =  8.50E-10,  avg # of iterations =  2.2

     negative rho (up, down):  8.800E-05 0.000E+00

     total cpu time spent up to now is      153.4 secs

     End of self-consistent calculation

          k = 0.0000 0.0000 0.0000 (  4205 PWs)   bands (ev):

   -59.1012 -35.2844 -35.1907 -35.1907 -19.4921 -17.4655 -11.9157  -8.5151
    -8.5151  -7.3967  -5.5458  -5.5458  -5.0527  -2.0256  -1.7347  -1.7347
    -1.1793

          k = 0.0000 0.2887 0.0000 (  4222 PWs)   bands (ev):

   -59.0855 -35.3837 -35.2405 -35.2318 -18.9945 -17.1110 -11.4462  -9.5874
    -8.3895  -7.7923  -6.5356  -5.8399  -5.0139  -3.3842  -1.9888  -1.8765
    -0.3454

          k = 0.0000-0.5774 0.0000 (  4236 PWs)   bands (ev):

   -59.0696 -35.5656 -35.2721 -35.2004 -18.5256 -16.5927 -11.1026 -10.4263
    -8.8424  -8.5244  -6.9021  -5.6061  -5.1803  -2.2331  -1.8682  -1.5462
    -0.6406

          k = 0.2500 0.4330 0.0000 (  4280 PWs)   bands (ev):

   -59.0699 -35.5012 -35.3409 -35.2006 -18.5226 -16.5924 -10.9907 -10.1012
    -9.2472  -8.0745  -7.1278  -6.5578  -4.7976  -3.1656  -2.0175  -1.2614
    -0.3790

     the Fermi energy is    -4.0908 ev

!    total energy              =    -161.07652919 Ry
     estimated scf accuracy    <       0.00000001 Ry
     smearing contrib. (-TS)   =       0.00006315 Ry
     internal energy E=F+TS    =    -161.07659233 Ry

     The total energy is F=E-TS. E is the sum of the following terms:
     one-electron contribution =   -1395.48407607 Ry
     hartree contribution      =     694.70316741 Ry
     xc contribution           =     -30.93563141 Ry
     ewald contribution        =     570.63994774 Ry

     convergence has been achieved in  10 iterations

     negative rho (up, down):  8.800E-05 0.000E+00

     Forces acting on atoms (cartesian axes, Ry/au):

     atom    1 type  2   force =     0.00000000    0.00000000    0.10683301
     atom    2 type  4   force =     0.00000000    0.00000000    0.00118669
     atom    3 type  3   force =     0.00000000    0.00000000   -0.19790834
     atom    4 type  1   force =     0.00000000    0.00000000    0.08988864

     Total force =     0.242203     Total SCF correction =     0.000316


     Computing stress (Cartesian axis) and pressure


     negative rho (up, down):  8.800E-05 0.000E+00
          total   stress  (Ry/bohr**3)                   (kbar)     P=       18.65
   0.00021465   0.00000000   0.00000000           31.58        0.00        0.00
   0.00000000   0.00021465  -0.00000000            0.00       31.58       -0.00
   0.00000000   0.00000000  -0.00004887            0.00        0.00       -7.19

     Energy error            =      5.1E-02 Ry
     Gradient error          =      2.0E-01 Ry/Bohr

     number of scf cycles    =   2
     number of bfgs steps    =   1

     energy             old  =    -161.0258100514 Ry
     energy             new  =    -161.0765291861 Ry

     CASE: energy            _new < energy            _old

     new trust radius        =       0.1416949483 bohr
     new conv_thr            =       0.0000001000 Ry


ATOMIC_POSITIONS (angstrom)
Nb              -0.0000000000        0.0000000000        0.0055422085
Se               1.7000000000        0.9814954600        1.6879749002
S                1.7000000000        0.9814954600       -1.3676902241
H                1.7000000000        0.9814954600       -2.8831239765



     Writing config-only to output data dir ./tmp/candidate_NbSSe_H_stop.save/ :
     XML data file
     NEW-OLD atomic charge density approx. for the potential

     negative rho (up, down):  1.085E-04 0.000E+00

     total cpu time spent up to now is      161.6 secs

     per-process dynamical memory:   115.2 Mb

     Self-consistent Calculation

     iteration #  1     ecut=    35.00 Ry     beta= 0.35
     Davidson diagonalization with overlap
     ethr =  1.00E-06,  avg # of iterations = 15.2

     negative rho (up, down):  1.003E-04 0.000E+00

     total cpu time spent up to now is      177.4 secs

     total energy              =    -161.10430391 Ry
     estimated scf accuracy    <       0.00863013 Ry

     iteration #  2     ecut=    35.00 Ry     beta= 0.35
     Davidson diagonalization with overlap
     ethr =  3.32E-05,  avg # of iterations =  5.0

     negative rho (up, down):  9.762E-05 0.000E+00

     total cpu time spent up to now is      184.3 secs

     total energy              =    -161.10279235 Ry
     estimated scf accuracy    <       0.05267667 Ry

     iteration #  3     ecut=    35.00 Ry     beta= 0.35
     Davidson diagonalization with overlap
     ethr =  3.32E-05,  avg # of iterations =  3.8

     negative rho (up, down):  9.175E-05 0.000E+00

     total cpu time spent up to now is      190.3 secs

     total energy              =    -161.10855178 Ry
     estimated scf accuracy    <       0.00045303 Ry

     iteration #  4     ecut=    35.00 Ry     beta= 0.35
     Davidson diagonalization with overlap
     ethr =  1.74E-06,  avg # of iterations =  4.8

     negative rho (up, down):  9.013E-05 0.000E+00

     total cpu time spent up to now is      197.0 secs

     total energy              =    -161.10863440 Ry
     estimated scf accuracy    <       0.00011339 Ry

     iteration #  5     ecut=    35.00 Ry     beta= 0.35
     Davidson diagonalization with overlap
     ethr =  4.36E-07,  avg # of iterations =  2.0

     negative rho (up, down):  8.893E-05 0.000E+00

     total cpu time spent up to now is      202.4 secs

     total energy              =    -161.10865273 Ry
     estimated scf accuracy    <       0.00002986 Ry

     iteration #  6     ecut=    35.00 Ry     beta= 0.35
     Davidson diagonalization with overlap
     ethr =  1.15E-07,  avg # of iterations =  2.0

     negative rho (up, down):  8.836E-05 0.000E+00

     total cpu time spent up to now is      207.0 secs

     total energy              =    -161.10865462 Ry
     estimated scf accuracy    <       0.00000774 Ry

     iteration #  7     ecut=    35.00 Ry     beta= 0.35
     Davidson diagonalization with overlap
     ethr =  2.98E-08,  avg # of iterations =  3.2

     negative rho (up, down):  8.785E-05 0.000E+00

     total cpu time spent up to now is      212.5 secs

     total energy              =    -161.10865581 Ry
     estimated scf accuracy    <       0.00000302 Ry

     iteration #  8     ecut=    35.00 Ry     beta= 0.35
     Davidson diagonalization with overlap
     ethr =  1.16E-08,  avg # of iterations =  1.8

     negative rho (up, down):  8.713E-05 0.000E+00

     total cpu time spent up to now is      216.7 secs

     End of self-consistent calculation

          k = 0.0000 0.0000 0.0000 (  4205 PWs)   bands (ev):

   -58.8796 -35.0636 -34.9258 -34.9258 -19.3207 -17.2533 -11.9233  -7.8244
    -7.8244  -7.4005  -5.3629  -5.3629  -4.5973  -2.1752  -1.5635  -1.5635
    -1.0947

          k = 0.0000 0.2887 0.0000 (  4222 PWs)   bands (ev):

   -58.8646 -35.1061 -35.0221 -34.9649 -18.8597 -16.8570 -11.5271  -9.1620
    -7.8275  -7.5803  -6.4407  -5.6082  -4.6457  -3.1118  -1.6373  -1.6244
    -0.3602

          k = 0.0000-0.5774 0.0000 (  4236 PWs)   bands (ev):

   -58.8494 -35.2775 -35.0032 -34.9831 -18.4031 -16.3099 -11.2368 -10.2264
    -8.5446  -8.0830  -6.8013  -5.3918  -4.8108  -1.9057  -1.5193  -1.1272
    -0.2924

          k = 0.2500 0.4330 0.0000 (  4280 PWs)   bands (ev):

   -58.8497 -35.2158 -35.0688 -34.9834 -18.4033 -16.3108 -11.1688  -9.8158
    -8.9315  -7.8405  -6.8559  -6.3058  -4.4419  -2.8091  -1.5847  -0.9011
    -0.4373

     the Fermi energy is    -3.7760 ev

!    total energy              =    -161.10865615 Ry
     estimated scf accuracy    <       0.00000010 Ry
     smearing contrib. (-TS)   =       0.00012034 Ry
     internal energy E=F+TS    =    -161.10877649 Ry

     The total energy is F=E-TS. E is the sum of the following terms:
     one-electron contribution =   -1387.15587644 Ry
     hartree contribution      =     690.74883277 Ry
     xc contribution           =     -30.91717508 Ry
     ewald contribution        =     566.21544225 Ry

     convergence has been achieved in   8 iterations

     negative rho (up, down):  8.713E-05 0.000E+00

     Forces acting on atoms (cartesian axes, Ry/au):

     atom    1 type  2   force =     0.00000000   -0.00000000    0.02175529
     atom    2 type  4   force =     0.00000000    0.00000000    0.01767789
     atom    3 type  3   force =     0.00000000   -0.00000000   -0.11297885
     atom    4 type  1   force =     0.00000000   -0.00000000    0.07354566

     Total force =     0.137692     Total SCF correction =     0.001916


     Computing stress (Cartesian axis) and pressure


     negative rho (up, down):  8.713E-05 0.000E+00
          total   stress  (Ry/bohr**3)                   (kbar)     P=       10.27
   0.00014478   0.00000000   0.00000000           21.30        0.00        0.00
   0.00000000   0.00014478  -0.00000000            0.00       21.30       -0.00
   0.00000000  -0.00000000  -0.00008005            0.00       -0.00      -11.78

     Energy error            =      3.2E-02 Ry
     Gradient error          =      1.1E-01 Ry/Bohr

     number of scf cycles    =   3
     number of bfgs steps    =   2

     energy             old  =    -161.0765291861 Ry
     energy             new  =    -161.1086561483 Ry

     CASE: energy            _new < energy            _old

     new trust radius        =       0.1558644431 bohr
     new conv_thr            =       0.0000001000 Ry


ATOMIC_POSITIONS (angstrom)
Nb               0.0000000000       -0.0000000000        0.0189491749
Se               1.7000000000        0.9814954600        1.7025848223
S                1.7000000000        0.9814954600       -1.4501701354
H                1.7000000000        0.9814954600       -2.8286609538



     Writing config-only to output data dir ./tmp/candidate_NbSSe_H_stop.save/ :
     XML data file
     NEW-OLD atomic charge density approx. for the potential

     negative rho (up, down):  9.248E-05 0.000E+00

     total cpu time spent up to now is      224.8 secs

     per-process dynamical memory:   115.2 Mb

     Self-consistent Calculation

     iteration #  1     ecut=    35.00 Ry     beta= 0.35
     Davidson diagonalization with overlap
     ethr =  1.00E-06,  avg # of iterations = 13.0

     negative rho (up, down):  9.234E-05 0.000E+00

     total cpu time spent up to now is      240.5 secs

     total energy              =    -161.12257298 Ry
     estimated scf accuracy    <       0.00570832 Ry

     iteration #  2     ecut=    35.00 Ry     beta= 0.35
     Davidson diagonalization with overlap
     ethr =  2.20E-05,  avg # of iterations =  3.2

     negative rho (up, down):  9.525E-05 0.000E+00

     total cpu time spent up to now is      245.9 secs

     total energy              =    -161.12230665 Ry
     estimated scf accuracy    <       0.00861497 Ry

     iteration #  3     ecut=    35.00 Ry     beta= 0.35
     Davidson diagonalization with overlap
     ethr =  2.20E-05,  avg # of iterations =  3.5

     negative rho (up, down):  9.346E-05 0.000E+00

     total cpu time spent up to now is      251.4 secs

     total energy              =    -161.12334517 Ry
     estimated scf accuracy    <       0.00164406 Ry

     iteration #  4     ecut=    35.00 Ry     beta= 0.35
     Davidson diagonalization with overlap
     ethr =  6.32E-06,  avg # of iterations =  4.8

     negative rho (up, down):  9.161E-05 0.000E+00

     total cpu time spent up to now is      259.3 secs

     total energy              =    -161.12360595 Ry
     estimated scf accuracy    <       0.00060897 Ry

     iteration #  5     ecut=    35.00 Ry     beta= 0.35
     Davidson diagonalization with overlap
     ethr =  2.34E-06,  avg # of iterations =  2.0

     negative rho (up, down):  9.167E-05 0.000E+00

     total cpu time spent up to now is      265.9 secs

     total energy              =    -161.12367728 Ry
     estimated scf accuracy    <       0.00003110 Ry

     iteration #  6     ecut=    35.00 Ry     beta= 0.35
     Davidson diagonalization with overlap
     ethr =  1.20E-07,  avg # of iterations =  3.2

     negative rho (up, down):  9.165E-05 0.000E+00

     total cpu time spent up to now is      271.8 secs

     total energy              =    -161.12368148 Ry
     estimated scf accuracy    <       0.00000827 Ry

     iteration #  7     ecut=    35.00 Ry     beta= 0.35
     Davidson diagonalization with overlap
     ethr =  3.18E-08,  avg # of iterations =  2.0

     negative rho (up, down):  9.124E-05 0.000E+00

     total cpu time spent up to now is      276.4 secs

     total energy              =    -161.12368267 Ry
     estimated scf accuracy    <       0.00000076 Ry

     iteration #  8     ecut=    35.00 Ry     beta= 0.35
     Davidson diagonalization with overlap
     ethr =  2.94E-09,  avg # of iterations =  3.2

     negative rho (up, down):  9.075E-05 0.000E+00

     total cpu time spent up to now is      281.6 secs

     End of self-consistent calculation

          k = 0.0000 0.0000 0.0000 (  4205 PWs)   bands (ev):

   -58.7060 -34.8824 -34.7168 -34.7168 -19.3273 -17.0579 -12.0409  -7.3129
    -7.2672  -7.2672  -5.0968  -5.0968  -4.2512  -2.1680  -1.6138  -1.6138
    -0.8404

          k = 0.0000 0.2887 0.0000 (  4222 PWs)   bands (ev):

   -58.6915 -34.8870 -34.8435 -34.7542 -18.9137 -16.6086 -11.7129  -8.8113
    -7.3724  -7.3230  -6.2974  -5.3024  -4.3592  -2.7868  -1.5531  -1.3634
    -0.2377

          k = 0.0000-0.5774 0.0000 (  4236 PWs)   bands (ev):

   -58.6769 -35.0495 -34.8065 -34.7908 -18.4842 -16.0210 -11.4787  -9.9996
    -8.2827  -7.6971  -6.6471  -5.1378  -4.5199  -1.3994  -1.2463  -0.8918
     0.0280

          k = 0.2500 0.4330 0.0000 (  4280 PWs)   bands (ev):

   -58.6773 -34.9902 -34.8538 -34.8069 -18.4862 -16.0244 -11.4267  -9.5474
    -8.6270  -7.6099  -6.5874  -6.0865  -4.1356  -2.4216  -1.2388  -0.7086
    -0.2695

     the Fermi energy is    -3.4602 ev

!    total energy              =    -161.12368282 Ry
     estimated scf accuracy    <       0.00000007 Ry
     smearing contrib. (-TS)   =       0.00010470 Ry
     internal energy E=F+TS    =    -161.12378752 Ry

     The total energy is F=E-TS. E is the sum of the following terms:
     one-electron contribution =   -1376.48458371 Ry
     hartree contribution      =     685.59238856 Ry
     xc contribution           =     -30.91662685 Ry
     ewald contribution        =     560.68503448 Ry

     convergence has been achieved in   8 iterations

     negative rho (up, down):  9.075E-05 0.000E+00

     Forces acting on atoms (cartesian axes, Ry/au):

     atom    1 type  2   force =     0.00000000    0.00000000   -0.01426050
     atom    2 type  4   force =     0.00000000    0.00000000    0.01146196
     atom    3 type  3   force =     0.00000000    0.00000000   -0.00467347
     atom    4 type  1   force =     0.00000000   -0.00000000    0.00747201

     Total force =     0.020308     Total SCF correction =     0.001095


     Computing stress (Cartesian axis) and pressure


     negative rho (up, down):  9.075E-05 0.000E+00
          total   stress  (Ry/bohr**3)                   (kbar)     P=        7.30
   0.00008901   0.00000000   0.00000000           13.09        0.00        0.00
   0.00000000   0.00008901   0.00000000            0.00       13.09        0.00
   0.00000000   0.00000000  -0.00002920            0.00        0.00       -4.30

     Energy error            =      1.5E-02 Ry
     Gradient error          =      1.4E-02 Ry/Bohr

     number of scf cycles    =   4
     number of bfgs steps    =   3

     energy             old  =    -161.1086561483 Ry
     energy             new  =    -161.1236828192 Ry

     CASE: energy            _new < energy            _old

     new trust radius        =       0.0121933404 bohr
     new conv_thr            =       0.0000000143 Ry


ATOMIC_POSITIONS (angstrom)
Nb               0.0000000000       -0.0000000000        0.0124967370
Se               1.7000000000        0.9814954600        1.7089186732
S                1.7000000000        0.9814954600       -1.4556402163
H                1.7000000000        0.9814954600       -2.8230722860



     Writing config-only to output data dir ./tmp/candidate_NbSSe_H_stop.save/ :
     XML data file
     NEW-OLD atomic charge density approx. for the potential

     negative rho (up, down):  9.164E-05 0.000E+00

     total cpu time spent up to now is      289.9 secs

     per-process dynamical memory:   115.2 Mb

     Self-consistent Calculation

     iteration #  1     ecut=    35.00 Ry     beta= 0.35
     Davidson diagonalization with overlap
     ethr =  1.00E-06,  avg # of iterations =  5.0

     negative rho (up, down):  9.153E-05 0.000E+00

     total cpu time spent up to now is      297.4 secs

     total energy              =    -161.12393588 Ry
     estimated scf accuracy    <       0.00004070 Ry

     iteration #  2     ecut=    35.00 Ry     beta= 0.35
     Davidson diagonalization with overlap
     ethr =  1.57E-07,  avg # of iterations =  3.5

     negative rho (up, down):  9.152E-05 0.000E+00

     total cpu time spent up to now is      303.5 secs

     total energy              =    -161.12393498 Ry
     estimated scf accuracy    <       0.00003236 Ry

     iteration #  3     ecut=    35.00 Ry     beta= 0.35
     Davidson diagonalization with overlap
     ethr =  1.24E-07,  avg # of iterations =  2.5

     negative rho (up, down):  9.149E-05 0.000E+00

     total cpu time spent up to now is      308.6 secs

     total energy              =    -161.12394075 Ry
     estimated scf accuracy    <       0.00002250 Ry

     iteration #  4     ecut=    35.00 Ry     beta= 0.35
     Davidson diagonalization with overlap
     ethr =  8.66E-08,  avg # of iterations =  2.0

     negative rho (up, down):  9.148E-05 0.000E+00

     total cpu time spent up to now is      313.2 secs

     total energy              =    -161.12394311 Ry
     estimated scf accuracy    <       0.00000227 Ry

     iteration #  5     ecut=    35.00 Ry     beta= 0.35
     Davidson diagonalization with overlap
     ethr =  8.73E-09,  avg # of iterations =  3.5

     negative rho (up, down):  9.148E-05 0.000E+00

     total cpu time spent up to now is      319.0 secs

     total energy              =    -161.12394346 Ry
     estimated scf accuracy    <       0.00000048 Ry

     iteration #  6     ecut=    35.00 Ry     beta= 0.35
     Davidson diagonalization with overlap
     ethr =  1.84E-09,  avg # of iterations =  1.8

     negative rho (up, down):  9.146E-05 0.000E+00

     total cpu time spent up to now is      323.6 secs

     total energy              =    -161.12394353 Ry
     estimated scf accuracy    <       0.00000003 Ry

     iteration #  7     ecut=    35.00 Ry     beta= 0.35
     Davidson diagonalization with overlap
     ethr =  1.09E-10,  avg # of iterations =  4.2

     negative rho (up, down):  9.143E-05 0.000E+00

     total cpu time spent up to now is      329.7 secs

     End of self-consistent calculation

          k = 0.0000 0.0000 0.0000 (  4205 PWs)   bands (ev):

   -58.6962 -34.8701 -34.7048 -34.7048 -19.3439 -17.0333 -12.0610  -7.2821
    -7.2578  -7.2578  -5.0407  -5.0407  -4.2680  -2.1526  -1.5946  -1.5946
    -0.8557

          k = 0.0000 0.2887 0.0000 (  4222 PWs)   bands (ev):

   -58.6818 -34.8745 -34.8313 -34.7421 -18.9355 -16.5779 -11.7346  -8.8038
    -7.3675  -7.2860  -6.2663  -5.2438  -4.3634  -2.7583  -1.5441  -1.3803
    -0.2473

          k = 0.0000-0.5774 0.0000 (  4236 PWs)   bands (ev):

   -58.6673 -35.0362 -34.7947 -34.7787 -18.5105 -15.9834 -11.5011  -9.9929
    -8.2560  -7.6881  -6.6236  -5.0899  -4.5183  -1.3431  -1.2297  -0.8833
     0.0441

          k = 0.2500 0.4330 0.0000 (  4280 PWs)   bands (ev):

   -58.6676 -34.9771 -34.8415 -34.7951 -18.5126 -15.9873 -11.4507  -9.5409
    -8.6071  -7.5854  -6.5587  -6.0666  -4.1162  -2.3940  -1.2278  -0.7110
    -0.2425

     the Fermi energy is    -3.4368 ev

!    total energy              =    -161.12394353 Ry
     estimated scf accuracy    <          3.3E-09 Ry
     smearing contrib. (-TS)   =       0.00009683 Ry
     internal energy E=F+TS    =    -161.12404036 Ry

     The total energy is F=E-TS. E is the sum of the following terms:
     one-electron contribution =   -1375.12876637 Ry
     hartree contribution      =     684.92674530 Ry
     xc contribution           =     -30.91468328 Ry
     ewald contribution        =     559.99266399 Ry

     convergence has been achieved in   7 iterations

     negative rho (up, down):  9.143E-05 0.000E+00

     Forces acting on atoms (cartesian axes, Ry/au):

     atom    1 type  2   force =     0.00000000   -0.00000000   -0.00689893
     atom    2 type  4   force =     0.00000000   -0.00000000    0.00435829
     atom    3 type  3   force =     0.00000000   -0.00000000    0.00394095
     atom    4 type  1   force =     0.00000000    0.00000000   -0.00140031

     Total force =     0.009170     Total SCF correction =     0.000099


     Computing stress (Cartesian axis) and pressure


     negative rho (up, down):  9.143E-05 0.000E+00
          total   stress  (Ry/bohr**3)                   (kbar)     P=        6.66
   0.00008173   0.00000000   0.00000000           12.02        0.00        0.00
   0.00000000   0.00008173  -0.00000000            0.00       12.02       -0.00
   0.00000000  -0.00000000  -0.00002774            0.00       -0.00       -4.08

     Energy error            =      2.6E-04 Ry
     Gradient error          =      6.9E-03 Ry/Bohr

     number of scf cycles    =   5
     number of bfgs steps    =   4

     energy             old  =    -161.1236828192 Ry
     energy             new  =    -161.1239435272 Ry

     CASE: energy            _new < energy            _old

     new trust radius        =       0.0093183212 bohr
     new conv_thr            =       0.0000000026 Ry


ATOMIC_POSITIONS (angstrom)
Nb               0.0000000000       -0.0000000000        0.0075656938
Se               1.7000000000        0.9814954600        1.7124098057
S                1.7000000000        0.9814954600       -1.4538595042
H                1.7000000000        0.9814954600       -2.8234130873



     Writing config-only to output data dir ./tmp/candidate_NbSSe_H_stop.save/ :
     XML data file
     NEW-OLD atomic charge density approx. for the potential

     negative rho (up, down):  9.175E-05 0.000E+00

     total cpu time spent up to now is      338.0 secs

     per-process dynamical memory:   115.2 Mb

     Self-consistent Calculation

     iteration #  1     ecut=    35.00 Ry     beta= 0.35
     Davidson diagonalization with overlap
     ethr =  1.00E-06,  avg # of iterations =  3.5

     Threshold (ethr) on eigenvalues was too large:
     Diagonalizing with lowered threshold

     Davidson diagonalization with overlap
     ethr =  3.20E-08,  avg # of iterations =  3.5

     negative rho (up, down):  9.161E-05 0.000E+00

     total cpu time spent up to now is      349.6 secs

     total energy              =    -161.12399381 Ry
     estimated scf accuracy    <       0.00001189 Ry

     iteration #  2     ecut=    35.00 Ry     beta= 0.35
     Davidson diagonalization with overlap
     ethr =  4.57E-08,  avg # of iterations =  4.2

     negative rho (up, down):  9.157E-05 0.000E+00

     total cpu time spent up to now is      356.4 secs

     total energy              =    -161.12399243 Ry
     estimated scf accuracy    <       0.00003822 Ry

     iteration #  3     ecut=    35.00 Ry     beta= 0.35
     Davidson diagonalization with overlap
     ethr =  4.57E-08,  avg # of iterations =  3.2

     negative rho (up, down):  9.152E-05 0.000E+00

     total cpu time spent up to now is      361.8 secs

     total energy              =    -161.12399719 Ry
     estimated scf accuracy    <       0.00000149 Ry

     iteration #  4     ecut=    35.00 Ry     beta= 0.35
     Davidson diagonalization with overlap
     ethr =  5.75E-09,  avg # of iterations =  2.0

     negative rho (up, down):  9.151E-05 0.000E+00

     total cpu time spent up to now is      366.5 secs

     total energy              =    -161.12399740 Ry
     estimated scf accuracy    <       0.00000051 Ry

     iteration #  5     ecut=    35.00 Ry     beta= 0.35
     Davidson diagonalization with overlap
     ethr =  1.96E-09,  avg # of iterations =  2.0

     negative rho (up, down):  9.152E-05 0.000E+00

     total cpu time spent up to now is      371.1 secs

     total energy              =    -161.12399747 Ry
     estimated scf accuracy    <       0.00000005 Ry

     iteration #  6     ecut=    35.00 Ry     beta= 0.35
     Davidson diagonalization with overlap
     ethr =  1.75E-10,  avg # of iterations =  3.2

     negative rho (up, down):  9.152E-05 0.000E+00

     total cpu time spent up to now is      376.5 secs

     total energy              =    -161.12399748 Ry
     estimated scf accuracy    <       0.00000001 Ry

     iteration #  7     ecut=    35.00 Ry     beta= 0.35
     Davidson diagonalization with overlap
     ethr =  5.73E-11,  avg # of iterations =  2.8

     negative rho (up, down):  9.151E-05 0.000E+00

     total cpu time spent up to now is      382.4 secs

     End of self-consistent calculation

          k = 0.0000 0.0000 0.0000 (  4205 PWs)   bands (ev):

   -58.6981 -34.8708 -34.7074 -34.7074 -19.3456 -17.0271 -12.0644  -7.2840
    -7.2840  -7.2666  -5.0174  -5.0174  -4.2983  -2.1447  -1.5757  -1.5757
    -0.8808

          k = 0.0000 0.2887 0.0000 (  4222 PWs)   bands (ev):

   -58.6837 -34.8772 -34.8319 -34.7447 -18.9378 -16.5706 -11.7351  -8.8189
    -7.3904  -7.2751  -6.2531  -5.2211  -4.3816  -2.7597  -1.5404  -1.4050
    -0.2600

          k = 0.0000-0.5774 0.0000 (  4236 PWs)   bands (ev):

   -58.6691 -35.0390 -34.7954 -34.7813 -18.5137 -15.9737 -11.4995 -10.0015
    -8.2515  -7.7046  -6.6167  -5.0708  -4.5327  -1.3352  -1.2329  -0.8871
     0.0270

          k = 0.2500 0.4330 0.0000 (  4280 PWs)   bands (ev):

   -58.6695 -34.9798 -34.8441 -34.7957 -18.5157 -15.9778 -11.4493  -9.5521
    -8.6114  -7.5811  -6.5538  -6.0648  -4.1197  -2.3984  -1.2379  -0.7206
    -0.2388

     the Fermi energy is    -3.4394 ev

!    total energy              =    -161.12399748 Ry
     estimated scf accuracy    <          2.0E-09 Ry
     smearing contrib. (-TS)   =       0.00009499 Ry
     internal energy E=F+TS    =    -161.12409247 Ry

     The total energy is F=E-TS. E is the sum of the following terms:
     one-electron contribution =   -1374.87992838 Ry
     hartree contribution      =     684.80095648 Ry
     xc contribution           =     -30.91239163 Ry
     ewald contribution        =     559.86727105 Ry

     convergence has been achieved in   7 iterations

     negative rho (up, down):  9.151E-05 0.000E+00

     Forces acting on atoms (cartesian axes, Ry/au):

     atom    1 type  2   force =     0.00000000   -0.00000000   -0.00006963
     atom    2 type  4   force =     0.00000000   -0.00000000    0.00009103
     atom    3 type  3   force =     0.00000000   -0.00000000   -0.00003484
     atom    4 type  1   force =     0.00000000    0.00000000    0.00001344

     Total force =     0.000121     Total SCF correction =     0.000213
     SCF correction compared to forces is large: reduce conv_thr to get better values


     Computing stress (Cartesian axis) and pressure


     negative rho (up, down):  9.151E-05 0.000E+00
          total   stress  (Ry/bohr**3)                   (kbar)     P=        6.11
   0.00008035   0.00000000   0.00000000           11.82        0.00        0.00
   0.00000000   0.00008035  -0.00000000            0.00       11.82       -0.00
   0.00000000  -0.00000000  -0.00003611            0.00       -0.00       -5.31

     Energy error            =      5.4E-05 Ry
     Gradient error          =      9.1E-05 Ry/Bohr

     bfgs converged in   6 scf cycles and   5 bfgs steps
     (criteria: energy <  1.0E-04 Ry, force <  1.0E-03 Ry/Bohr)

     End of BFGS Geometry Optimization

     Final energy             =    -161.1239974813 Ry

     File ./tmp/candidate_NbSSe_H_stop.bfgs deleted, as requested
Begin final coordinates

ATOMIC_POSITIONS (angstrom)
Nb               0.0000000000       -0.0000000000        0.0075656938
Se               1.7000000000        0.9814954600        1.7124098057
S                1.7000000000        0.9814954600       -1.4538595042
H                1.7000000000        0.9814954600       -2.8234130873
End final coordinates



     Writing all to output data dir ./tmp/candidate_NbSSe_H_stop.save/ :
     XML data file, charge density, pseudopotentials, collected wavefunctions

     init_run     :     37.87s CPU      4.22s WALL (       1 calls)
     electrons    :   4658.16s CPU    336.30s WALL (       6 calls)
     update_pot   :     12.36s CPU      0.79s WALL (       5 calls)
     forces       :     55.95s CPU      6.82s WALL (       6 calls)
     stress       :    146.71s CPU     37.72s WALL (       6 calls)

     Called by init_run:
     wfcinit      :     22.70s CPU      1.44s WALL (       1 calls)
     potinit      :      6.30s CPU      0.50s WALL (       1 calls)
     hinit0       :      6.42s CPU      1.49s WALL (       1 calls)

     Called by electrons:
     c_bands      :   3745.69s CPU    235.01s WALL (      53 calls)
     sum_band     :    707.14s CPU     62.03s WALL (      53 calls)
     v_of_rho     :     51.65s CPU      3.26s WALL (      57 calls)
     newd         :    144.55s CPU     38.64s WALL (      57 calls)
     mix_rho      :     23.20s CPU      1.49s WALL (      53 calls)

     Called by c_bands:
     init_us_2    :      9.26s CPU      1.39s WALL (     476 calls)
     cegterg      :   3713.83s CPU    232.58s WALL (     212 calls)

     Called by *egterg:
     cdiaghg      :     33.67s CPU      2.23s WALL (    1000 calls)
     h_psi        :   2827.52s CPU    177.15s WALL (    1032 calls)
     s_psi        :    167.10s CPU     10.55s WALL (    1032 calls)
     g_psi        :      1.47s CPU      0.24s WALL (     816 calls)

     Called by h_psi:
     h_psi:calbec :     70.50s CPU      3.81s WALL (    1032 calls)
     vloc_psi     :   2389.44s CPU    151.25s WALL (    1032 calls)
                                        0.00s GPU  (    1032 calls)
     add_vuspsi   :    169.76s CPU      9.94s WALL (    1032 calls)

     General routines
     calbec       :     87.46s CPU      4.95s WALL (    1652 calls)
     fft          :     75.38s CPU      4.98s WALL (     886 calls)
     ffts         :     11.06s CPU      0.71s WALL (     110 calls)
     fftw         :   2432.42s CPU    154.20s WALL (   23666 calls)
     interpolate  :     10.28s CPU      0.67s WALL (      57 calls)

     Parallel routines

     PWSCF        :      1h22m CPU   6m29.83s WALL


   This run was terminated on:  13:55:43  10May2026            

=------------------------------------------------------------------------------=
   JOB DONE.
=------------------------------------------------------------------------------=
