
     Program PWSCF v.7.5 starts on 11May2026 at  0:16:45 

     This program is part of the open-source Quantum ESPRESSO suite
     for quantum simulation of materials; please cite
         "P. Giannozzi et al., J. Phys.:Condens. Matter 21 395502 (2009);
         "P. Giannozzi et al., J. Phys.:Condens. Matter 29 465901 (2017);
         "P. Giannozzi et al., J. Chem. Phys. 152 154105 (2020);
          URL http://www.quantum-espresso.org", 
     in publications or presentations arising from this work. More details at
     http://www.quantum-espresso.org/quote

     Parallel version (MPI & OpenMP), running on      16 processor cores
     Number of MPI processes:                 1
     Threads/MPI process:                    16

     MPI processes distributed on     1 nodes
     6977 MiB available memory on the printing compute node when the environment starts

     Reading input from /root/qe_work_expanded/candidate_04_VSSe/03_h_ads_top_relaxed.in

     Current dimensions of program PWSCF are:
     Max number of different atomic species (ntypx) = 10
     Max number of k-points (npk) =  40000
     Max angular momentum in pseudopotentials (lmaxx) =  4
     file V.pbe-spnl-rrkjus_psl.1.0.0.UPF: wavefunction(s)  3P 3D renormalized
     Message from routine setup:
     using ibrav=0 with symmetry is DISCOURAGED, use correct ibrav instead

     Subspace diagonalization in iterative solution of the eigenvalue problem:
     a serial algorithm will be used


     G-vector sticks info
     --------------------
     sticks:   dense  smooth     PW     G-vecs:    dense   smooth      PW
     Sum        1417     475    139               211565    40647    6483

     Using Slab Decomposition



     bravais-lattice index     =            0
     lattice parameter (alat)  =       7.0315  a.u.
     unit-cell volume          =    1456.4449 (a.u.)^3
     number of atoms/cell      =            4
     number of atomic types    =            4
     number of electrons       =        26.00
     number of Kohn-Sham states=           17
     kinetic-energy cutoff     =      35.0000  Ry
     charge density cutoff     =     420.0000  Ry
     scf convergence threshold =      1.0E-06
     mixing beta               =       0.1000
     number of iterations used =            8  local-TF  mixing
     energy convergence thresh.=      1.0E-04
     force convergence thresh. =      1.0E-03
     Exchange-correlation= PBE
                           (   1   4   3   4   0   0   0)
     nstep                     =           50


     celldm(1)=   7.031468  celldm(2)=   0.000000  celldm(3)=   0.000000
     celldm(4)=   0.000000  celldm(5)=   0.000000  celldm(6)=   0.000000

     crystal axes: (cart. coord. in units of alat)
               a(1) = (   1.000000   0.000000   0.000000 )  
               a(2) = (  -0.500000   0.866025   0.000000 )  
               a(3) = (   0.000000   0.000000   4.837549 )  

     reciprocal axes: (cart. coord. in units 2 pi/alat)
               b(1) = (  1.000000  0.577350 -0.000000 )  
               b(2) = (  0.000000  1.154701  0.000000 )  
               b(3) = (  0.000000 -0.000000  0.206716 )  


     PseudoPot. # 1 for H  read from file:
     ./pseudos/H.pbe-rrkjus_psl.1.0.0.UPF
     MD5 check sum: 3f4114867bd07edc7f1424d066fc1888
     Pseudo is Ultrasoft, Zval =  1.0
     Generated using &quot;atomic&quot; code by A. Dal Corso  v.6.3MaX
     Using radial grid of  929 points,  2 beta functions with: 
                l(1) =   0
                l(2) =   0
     Q(r) pseudized with 0 coefficients 


     PseudoPot. # 2 for S  read from file:
     ./pseudos/S.pbe-n-rrkjus_psl.1.0.0.UPF
     MD5 check sum: 9d0fe39aa2a799ea84730884c9b010f4
     Pseudo is Ultrasoft + core correction, Zval =  6.0
     Generated using &quot;atomic&quot; code by A. Dal Corso  v.6.3
     Using radial grid of 1151 points,  6 beta functions with: 
                l(1) =   0
                l(2) =   0
                l(3) =   1
                l(4) =   1
                l(5) =   2
                l(6) =   2
     Q(r) pseudized with 0 coefficients 


     PseudoPot. # 3 for Se read from file:
     ./pseudos/Se.pbe-n-rrkjus_psl.1.0.0.UPF
     MD5 check sum: 8e2a6847b5cb9faee9497ebb573e71ea
     Pseudo is Ultrasoft + core correction, Zval =  6.0
     Generated using &quot;atomic&quot; code by A. Dal Corso  v.6.3
     Using radial grid of 1211 points,  4 beta functions with: 
                l(1) =   0
                l(2) =   0
                l(3) =   1
                l(4) =   1
     Q(r) pseudized with 0 coefficients 


     PseudoPot. # 4 for V  read from file:
     ./pseudos/V.pbe-spnl-rrkjus_psl.1.0.0.UPF
     MD5 check sum: 79b3eb63147daf0b665d9f1bcc691206
     Pseudo is Ultrasoft + core correction, Zval = 13.0
     Generated using &quot;atomic&quot; code by A. Dal Corso  v.6.2.2
     Using radial grid of 1181 points,  6 beta functions with: 
                l(1) =   0
                l(2) =   0
                l(3) =   1
                l(4) =   1
                l(5) =   2
                l(6) =   2
     Q(r) pseudized with 0 coefficients 


     atomic species   valence    mass     pseudopotential
     H                 1.00     1.00800     H ( 1.00)
     S                 6.00    32.06000     S ( 1.00)
     Se                6.00    78.97100     Se( 1.00)
     V                13.00    50.94200     V ( 1.00)

      6 Sym. Ops. (no inversion) found



   Cartesian axes

     site n.     atom                  positions (alat units)
         1        V      tau(   1) = (   0.0000000  -0.0000000   0.0137740  )
         2        S      tau(   2) = (   0.5000000   0.2886751   0.3684786  )
         3        Se     tau(   3) = (   0.5000000   0.2886751  -0.3822526  )
         4        H      tau(   4) = (   0.5000000   0.2886751   0.6641066  )

     number of k points=     4  Marzari-Vanderbilt smearing, width (Ry)=  0.0100
                       cart. coord. in units 2pi/alat
        k(    1) = (   0.0000000   0.0000000   0.0000000), wk =   0.1250000
        k(    2) = (   0.0000000   0.2886751   0.0000000), wk =   0.7500000
        k(    3) = (   0.0000000  -0.5773503   0.0000000), wk =   0.3750000
        k(    4) = (   0.2500000   0.4330127   0.0000000), wk =   0.7500000

     Dense  grid:   211565 G-vectors     FFT dimensions: (  45,  45, 225)

     Smooth grid:    40647 G-vectors     FFT dimensions: (  27,  27, 135)

     Estimated max dynamical RAM per process >     802.95 MB
 ----2D----2D----2D----2D----2D----2D----2D----2D----2D----2D----2D----2D
  The code is running with the 2D cutoff
  Please refer to:
  Sohier, T., Calandra, M., & Mauri, F. (2017), 
  Density functional perturbation theory for gated two-dimensional heterostructures:
  Theoretical developments and application to flexural phonons in graphene.
  Physical Review B, 96(7), 75448. https://doi.org/10.1103/PhysRevB.96.075448
 ----2D----2D----2D----2D----2D----2D----2D----2D----2D----2D----2D----2D

     Check: negative core charge=   -0.000002

     Initial potential from superposition of free atoms

     starting charge      25.9990, renormalised to      26.0000

     negative rho (up, down):  2.080E-04 0.000E+00
     Starting wfcs are   19 randomized atomic wfcs

     total cpu time spent up to now is       70.9 secs

     per-process dynamical memory:   147.3 Mb

     Self-consistent Calculation

     iteration #  1     ecut=    35.00 Ry     beta= 0.10
     Davidson diagonalization with overlap
     ethr =  1.00E-02,  avg # of iterations =  2.0

     Threshold (ethr) on eigenvalues was too large:
     Diagonalizing with lowered threshold

     Davidson diagonalization with overlap
     ethr =  6.41E-04,  avg # of iterations =  4.0

     negative rho (up, down):  4.899E-05 0.000E+00

     total cpu time spent up to now is      187.3 secs

     total energy              =    -188.45132237 Ry
     estimated scf accuracy    <       0.18172925 Ry

     iteration #  2     ecut=    35.00 Ry     beta= 0.10
     Davidson diagonalization with overlap
     ethr =  6.99E-04,  avg # of iterations =  1.0

     negative rho (up, down):  2.665E-03 0.000E+00

     total cpu time spent up to now is      246.4 secs

     total energy              =    -188.42127752 Ry
     estimated scf accuracy    <       0.14959849 Ry

     iteration #  3     ecut=    35.00 Ry     beta= 0.10
     Davidson diagonalization with overlap
     ethr =  5.75E-04,  avg # of iterations =  1.0

     negative rho (up, down):  1.631E-03 0.000E+00

     total cpu time spent up to now is      294.5 secs

     total energy              =    -188.42308026 Ry
     estimated scf accuracy    <       0.07279803 Ry

     iteration #  4     ecut=    35.00 Ry     beta= 0.10
     Davidson diagonalization with overlap
     ethr =  2.80E-04,  avg # of iterations =  1.0

     negative rho (up, down):  3.685E-03 0.000E+00

     total cpu time spent up to now is      349.8 secs

     total energy              =    -188.40790887 Ry
     estimated scf accuracy    <       0.05136993 Ry

     iteration #  5     ecut=    35.00 Ry     beta= 0.10
     Davidson diagonalization with overlap
     ethr =  1.98E-04,  avg # of iterations =  2.0

     negative rho (up, down):  1.460E-03 0.000E+00

     total cpu time spent up to now is      404.2 secs

     total energy              =    -188.41057564 Ry
     estimated scf accuracy    <       0.01851432 Ry

     iteration #  6     ecut=    35.00 Ry     beta= 0.10
     Davidson diagonalization with overlap
     ethr =  7.12E-05,  avg # of iterations =  2.0
     Minimization algorithm failed to find Fermi energy: reverting to bisection
     Possible cause: smearing is larger than the electronic band-gap.

     negative rho (up, down):  7.112E-04 0.000E+00

     total cpu time spent up to now is      461.8 secs

     total energy              =    -188.40405084 Ry
     estimated scf accuracy    <       0.03590157 Ry

     iteration #  7     ecut=    35.00 Ry     beta= 0.10
     Davidson diagonalization with overlap
     ethr =  7.12E-05,  avg # of iterations =  2.5

     negative rho (up, down):  6.055E-04 0.000E+00

     total cpu time spent up to now is      519.3 secs

     total energy              =    -188.40785005 Ry
     estimated scf accuracy    <       0.00474096 Ry

     iteration #  8     ecut=    35.00 Ry     beta= 0.10
     Davidson diagonalization with overlap
     ethr =  1.82E-05,  avg # of iterations =  1.2

     negative rho (up, down):  5.319E-04 0.000E+00

     total cpu time spent up to now is      562.8 secs

     total energy              =    -188.40763132 Ry
     estimated scf accuracy    <       0.00405051 Ry

     iteration #  9     ecut=    35.00 Ry     beta= 0.10
     Davidson diagonalization with overlap
     ethr =  1.56E-05,  avg # of iterations =  1.0

     negative rho (up, down):  9.944E-04 0.000E+00

     total cpu time spent up to now is      598.8 secs

     total energy              =    -188.40665187 Ry
     estimated scf accuracy    <       0.00315841 Ry

     iteration # 10     ecut=    35.00 Ry     beta= 0.10
     Davidson diagonalization with overlap
     ethr =  1.21E-05,  avg # of iterations =  2.0

     negative rho (up, down):  1.951E-03 0.000E+00

     total cpu time spent up to now is      645.8 secs

     total energy              =    -188.40635765 Ry
     estimated scf accuracy    <       0.00356005 Ry

     iteration # 11     ecut=    35.00 Ry     beta= 0.10
     Davidson diagonalization with overlap
     ethr =  1.21E-05,  avg # of iterations =  1.0

     negative rho (up, down):  7.075E-03 0.000E+00

     total cpu time spent up to now is      687.6 secs

     total energy              =    -188.40586847 Ry
     estimated scf accuracy    <       0.00223110 Ry

     iteration # 12     ecut=    35.00 Ry     beta= 0.10
     Davidson diagonalization with overlap
     ethr =  8.58E-06,  avg # of iterations =  1.5

     negative rho (up, down):  4.010E-03 0.000E+00

     total cpu time spent up to now is      735.1 secs

     total energy              =    -188.40545982 Ry
     estimated scf accuracy    <       0.00146745 Ry

     iteration # 13     ecut=    35.00 Ry     beta= 0.10
     Davidson diagonalization with overlap
     ethr =  5.64E-06,  avg # of iterations =  2.2

     negative rho (up, down):  7.557E-03 0.000E+00

     total cpu time spent up to now is      781.9 secs

     total energy              =    -188.40555793 Ry
     estimated scf accuracy    <       0.00108658 Ry

     iteration # 14     ecut=    35.00 Ry     beta= 0.10
     Davidson diagonalization with overlap
     ethr =  4.18E-06,  avg # of iterations =  2.0

     negative rho (up, down):  5.184E-03 0.000E+00

     total cpu time spent up to now is      832.3 secs

     total energy              =    -188.40562717 Ry
     estimated scf accuracy    <       0.00031184 Ry

     iteration # 15     ecut=    35.00 Ry     beta= 0.10
     Davidson diagonalization with overlap
     ethr =  1.20E-06,  avg # of iterations =  1.2

     negative rho (up, down):  4.145E-03 0.000E+00

     total cpu time spent up to now is      889.3 secs

     total energy              =    -188.40555932 Ry
     estimated scf accuracy    <       0.00020386 Ry

     iteration # 16     ecut=    35.00 Ry     beta= 0.10
     Davidson diagonalization with overlap
     ethr =  7.84E-07,  avg # of iterations =  2.0

     negative rho (up, down):  4.050E-03 0.000E+00

     total cpu time spent up to now is      938.2 secs

     total energy              =    -188.40570711 Ry
     estimated scf accuracy    <       0.00012732 Ry

     iteration # 17     ecut=    35.00 Ry     beta= 0.10
     Davidson diagonalization with overlap
     ethr =  4.90E-07,  avg # of iterations =  2.0

     negative rho (up, down):  4.109E-03 0.000E+00

     total cpu time spent up to now is      981.6 secs

     total energy              =    -188.40579489 Ry
     estimated scf accuracy    <       0.00016512 Ry

     iteration # 18     ecut=    35.00 Ry     beta= 0.10
     Davidson diagonalization with overlap
     ethr =  4.90E-07,  avg # of iterations =  1.8

     negative rho (up, down):  3.289E-03 0.000E+00

     total cpu time spent up to now is     1071.1 secs

     total energy              =    -188.40581245 Ry
     estimated scf accuracy    <       0.00002864 Ry

     iteration # 19     ecut=    35.00 Ry     beta= 0.10
     Davidson diagonalization with overlap
     ethr =  1.10E-07,  avg # of iterations =  2.5

     negative rho (up, down):  2.940E-03 0.000E+00

     total cpu time spent up to now is     1173.4 secs

     total energy              =    -188.40585548 Ry
     estimated scf accuracy    <       0.00001222 Ry

     iteration # 20     ecut=    35.00 Ry     beta= 0.10
     Davidson diagonalization with overlap
     ethr =  4.70E-08,  avg # of iterations =  2.2

     negative rho (up, down):  2.682E-03 0.000E+00

     total cpu time spent up to now is     1224.2 secs

     total energy              =    -188.40588262 Ry
     estimated scf accuracy    <       0.00001002 Ry

     iteration # 21     ecut=    35.00 Ry     beta= 0.10
     Davidson diagonalization with overlap
     ethr =  3.85E-08,  avg # of iterations =  1.2

     negative rho (up, down):  2.547E-03 0.000E+00

     total cpu time spent up to now is     1266.1 secs

     total energy              =    -188.40589715 Ry
     estimated scf accuracy    <       0.00000817 Ry

     iteration # 22     ecut=    35.00 Ry     beta= 0.10
     Davidson diagonalization with overlap
     ethr =  3.14E-08,  avg # of iterations =  2.0

     negative rho (up, down):  2.337E-03 0.000E+00

     total cpu time spent up to now is     1305.3 secs

     total energy              =    -188.40590617 Ry
     estimated scf accuracy    <       0.00000320 Ry

     iteration # 23     ecut=    35.00 Ry     beta= 0.10
     Davidson diagonalization with overlap
     ethr =  1.23E-08,  avg # of iterations =  4.5

     negative rho (up, down):  2.113E-03 0.000E+00

     total cpu time spent up to now is     1365.8 secs

     total energy              =    -188.40592405 Ry
     estimated scf accuracy    <       0.00000241 Ry

     iteration # 24     ecut=    35.00 Ry     beta= 0.10
     Davidson diagonalization with overlap
     ethr =  9.26E-09,  avg # of iterations =  1.2

     negative rho (up, down):  2.039E-03 0.000E+00

     total cpu time spent up to now is     1403.2 secs

     total energy              =    -188.40593767 Ry
     estimated scf accuracy    <       0.00000171 Ry

     iteration # 25     ecut=    35.00 Ry     beta= 0.10
     Davidson diagonalization with overlap
     ethr =  6.56E-09,  avg # of iterations =  3.0

     negative rho (up, down):  1.413E-03 0.000E+00

     total cpu time spent up to now is     1446.4 secs

     End of self-consistent calculation

          k = 0.0000 0.0000 0.0000 (  5141 PWs)   bands (ev):

   -69.0531 -42.8354 -42.8354 -42.6931 -20.0390 -17.1659 -12.2237  -7.5808
    -7.5808  -6.4745  -5.7449  -5.7449  -3.8780  -3.1100  -3.1100  -2.3119
    -2.3119

          k = 0.0000 0.2887 0.0000 (  5091 PWs)   bands (ev):

   -69.0522 -42.8378 -42.8342 -42.6903 -19.8450 -16.8593 -12.0166  -8.7678
    -7.6044  -6.9328  -6.1567  -6.0583  -4.3030  -3.2250  -3.2171  -2.8452
    -2.2493

          k = 0.0000-0.5774 0.0000 (  5066 PWs)   bands (ev):

   -69.0514 -42.8445 -42.8320 -42.6888 -19.6400 -16.4994 -11.7894  -9.7316
    -7.9256  -7.7067  -6.1686  -6.0554  -4.4882  -3.5484  -3.5269  -2.4450
    -1.9690

          k = 0.2500 0.4330 0.0000 (  5093 PWs)   bands (ev):

   -69.0514 -42.8460 -42.8398 -42.6883 -19.6420 -16.5049 -11.7923  -9.3048
    -8.3319  -7.5827  -6.7089  -5.9703  -4.5698  -3.7035  -3.2216  -2.6041
    -2.0980

     the Fermi energy is    -3.8204 ev

!    total energy              =    -188.40600084 Ry
     estimated scf accuracy    <       0.00000098 Ry
     smearing contrib. (-TS)   =      -0.00053465 Ry
     internal energy E=F+TS    =    -188.40546619 Ry

     The total energy is F=E-TS. E is the sum of the following terms:
     one-electron contribution =   -1268.65043710 Ry
     hartree contribution      =     631.06126031 Ry
     xc contribution           =     -32.54696806 Ry
     ewald contribution        =     481.73067866 Ry

     convergence has been achieved in  25 iterations

     negative rho (up, down):  1.413E-03 0.000E+00

     Forces acting on atoms (cartesian axes, Ry/au):

     atom    1 type  4   force =     0.00000000   -0.00000000    0.02154671
     atom    2 type  2   force =     0.00000000    0.00000000   -0.50824657
     atom    3 type  3   force =     0.00000000   -0.00000000   -0.01647820
     atom    4 type  1   force =     0.00000000    0.00000000    0.50317806

     Total force =     0.715708     Total SCF correction =     0.002356


     Computing stress (Cartesian axis) and pressure


     negative rho (up, down):  1.413E-03 0.000E+00
          total   stress  (Ry/bohr**3)                   (kbar)     P=      -35.90
  -0.00058464  -0.00000000   0.00000000          -86.00       -0.00        0.00
  -0.00000000  -0.00058464   0.00000000           -0.00      -86.00        0.00
   0.00000000   0.00000000   0.00043708            0.00        0.00       64.30


     BFGS Geometry Optimization
     Energy error            =      5.1E-01 Ry
     Gradient error          =      5.1E-01 Ry/Bohr

     number of scf cycles    =   1
     number of bfgs steps    =   0

     energy             new  =    -188.4060008448 Ry

     new trust radius        =       0.5000000000 bohr
     new conv_thr            =       0.0000010000 Ry


ATOMIC_POSITIONS (angstrom)
V                0.0000000000       -0.0000000000        0.0624684229
S                1.8604463800        1.0741292200        1.1064808800
Se               1.8604463800        1.0741292200       -1.4308992844
H                1.8604463800        1.0741292200        2.7330194671



     Writing config-only to output data dir ./tmp/candidate_04_VSSe_H_relaxed.save/ :
     XML data file
     NEW-OLD atomic charge density approx. for the potential

     Check: negative core charge=   -0.000002

     negative rho (up, down):  1.321E-03 0.000E+00

     total cpu time spent up to now is     1464.4 secs

     per-process dynamical memory:   155.1 Mb

     Self-consistent Calculation

     iteration #  1     ecut=    35.00 Ry     beta= 0.10
     Davidson diagonalization with overlap
     ethr =  1.00E-06,  avg # of iterations = 12.8

     negative rho (up, down):  1.767E-03 0.000E+00

     total cpu time spent up to now is     1642.2 secs

     total energy              =    -188.48245727 Ry
     estimated scf accuracy    <       0.09152677 Ry

     iteration #  2     ecut=    35.00 Ry     beta= 0.10
     Davidson diagonalization with overlap
     ethr =  3.52E-04,  avg # of iterations =  1.0

     negative rho (up, down):  9.773E-03 0.000E+00

     total cpu time spent up to now is     1679.9 secs

     total energy              =    -188.46827569 Ry
     estimated scf accuracy    <       0.07092070 Ry

     iteration #  3     ecut=    35.00 Ry     beta= 0.10
     Davidson diagonalization with overlap
     ethr =  2.73E-04,  avg # of iterations =  1.5

     negative rho (up, down):  1.699E-02 0.000E+00

     total cpu time spent up to now is     1717.4 secs

     total energy              =    -188.46813303 Ry
     estimated scf accuracy    <       0.02004385 Ry

     iteration #  4     ecut=    35.00 Ry     beta= 0.10
     Davidson diagonalization with overlap
     ethr =  7.71E-05,  avg # of iterations =  2.0

     negative rho (up, down):  1.985E-02 0.000E+00

     total cpu time spent up to now is     1753.0 secs

     total energy              =    -188.46934624 Ry
     estimated scf accuracy    <       0.00306398 Ry

     iteration #  5     ecut=    35.00 Ry     beta= 0.10
     Davidson diagonalization with overlap
     ethr =  1.18E-05,  avg # of iterations =  3.0

     negative rho (up, down):  1.777E-02 0.000E+00

     total cpu time spent up to now is     1794.6 secs

     total energy              =    -188.46938406 Ry
     estimated scf accuracy    <       0.00168414 Ry

     iteration #  6     ecut=    35.00 Ry     beta= 0.10
     Davidson diagonalization with overlap
     ethr =  6.48E-06,  avg # of iterations =  2.0

     negative rho (up, down):  1.446E-02 0.000E+00

     total cpu time spent up to now is     1840.1 secs

     total energy              =    -188.46906355 Ry
     estimated scf accuracy    <       0.00130286 Ry

     iteration #  7     ecut=    35.00 Ry     beta= 0.10
     Davidson diagonalization with overlap
     ethr =  5.01E-06,  avg # of iterations =  3.2

     negative rho (up, down):  1.424E-02 0.000E+00

     total cpu time spent up to now is     1881.2 secs

     total energy              =    -188.46934263 Ry
     estimated scf accuracy    <       0.00080639 Ry

     iteration #  8     ecut=    35.00 Ry     beta= 0.10
     Davidson diagonalization with overlap
     ethr =  3.10E-06,  avg # of iterations =  1.0

     negative rho (up, down):  1.102E-02 0.000E+00

     total cpu time spent up to now is     1911.3 secs

     total energy              =    -188.46899727 Ry
     estimated scf accuracy    <       0.00085811 Ry

     iteration #  9     ecut=    35.00 Ry     beta= 0.10
     Davidson diagonalization with overlap
     ethr =  3.10E-06,  avg # of iterations =  2.2

     negative rho (up, down):  1.032E-02 0.000E+00

     total cpu time spent up to now is     1947.0 secs

     total energy              =    -188.46900695 Ry
     estimated scf accuracy    <       0.00052288 Ry

     iteration # 10     ecut=    35.00 Ry     beta= 0.10
     Davidson diagonalization with overlap
     ethr =  2.01E-06,  avg # of iterations =  1.0

     negative rho (up, down):  9.715E-03 0.000E+00

     total cpu time spent up to now is     1965.6 secs

     total energy              =    -188.46903895 Ry
     estimated scf accuracy    <       0.00037056 Ry

     iteration # 11     ecut=    35.00 Ry     beta= 0.10
     Davidson diagonalization with overlap
     ethr =  1.43E-06,  avg # of iterations =  1.0

     negative rho (up, down):  7.186E-03 0.000E+00

     total cpu time spent up to now is     1973.4 secs

     total energy              =    -188.46882389 Ry
     estimated scf accuracy    <       0.00044053 Ry

     iteration # 12     ecut=    35.00 Ry     beta= 0.10
     Davidson diagonalization with overlap
     ethr =  1.43E-06,  avg # of iterations =  2.2

     negative rho (up, down):  6.473E-03 0.000E+00

     total cpu time spent up to now is     1985.0 secs

     total energy              =    -188.46880320 Ry
     estimated scf accuracy    <       0.00007691 Ry

     iteration # 13     ecut=    35.00 Ry     beta= 0.10
     Davidson diagonalization with overlap
     ethr =  2.96E-07,  avg # of iterations =  3.8

     negative rho (up, down):  5.737E-03 0.000E+00

     total cpu time spent up to now is     1994.0 secs

     total energy              =    -188.46883187 Ry
     estimated scf accuracy    <       0.00010472 Ry

     iteration # 14     ecut=    35.00 Ry     beta= 0.10
     Davidson diagonalization with overlap
     ethr =  2.96E-07,  avg # of iterations =  2.0

     negative rho (up, down):  4.977E-03 0.000E+00

     total cpu time spent up to now is     2003.7 secs

     total energy              =    -188.46879999 Ry
     estimated scf accuracy    <       0.00006626 Ry

     iteration # 15     ecut=    35.00 Ry     beta= 0.10
     Davidson diagonalization with overlap
     ethr =  2.55E-07,  avg # of iterations =  2.2

     negative rho (up, down):  4.301E-03 0.000E+00

     total cpu time spent up to now is     2011.4 secs

     total energy              =    -188.46878651 Ry
     estimated scf accuracy    <       0.00002655 Ry

     iteration # 16     ecut=    35.00 Ry     beta= 0.10
     Davidson diagonalization with overlap
     ethr =  1.02E-07,  avg # of iterations =  2.5

     negative rho (up, down):  3.309E-03 0.000E+00

     total cpu time spent up to now is     2019.0 secs

     total energy              =    -188.46875371 Ry
     estimated scf accuracy    <       0.00002061 Ry

     iteration # 17     ecut=    35.00 Ry     beta= 0.10
     Davidson diagonalization with overlap
     ethr =  7.93E-08,  avg # of iterations =  3.5

     negative rho (up, down):  2.902E-03 0.000E+00

     total cpu time spent up to now is     2027.2 secs

     total energy              =    -188.46875991 Ry
     estimated scf accuracy    <       0.00002386 Ry

     iteration # 18     ecut=    35.00 Ry     beta= 0.10
     Davidson diagonalization with overlap
     ethr =  7.93E-08,  avg # of iterations =  3.0

     negative rho (up, down):  2.806E-03 0.000E+00

     total cpu time spent up to now is     2035.6 secs

     total energy              =    -188.46877252 Ry
     estimated scf accuracy    <       0.00003842 Ry

     iteration # 19     ecut=    35.00 Ry     beta= 0.10
     Davidson diagonalization with overlap
     ethr =  7.93E-08,  avg # of iterations =  2.0

     negative rho (up, down):  2.411E-03 0.000E+00

     total cpu time spent up to now is     2042.4 secs

     total energy              =    -188.46876495 Ry
     estimated scf accuracy    <       0.00001999 Ry

     iteration # 20     ecut=    35.00 Ry     beta= 0.10
     Davidson diagonalization with overlap
     ethr =  7.69E-08,  avg # of iterations =  3.2

     negative rho (up, down):  2.265E-03 0.000E+00

     total cpu time spent up to now is     2051.4 secs

     total energy              =    -188.46877486 Ry
     estimated scf accuracy    <       0.00000315 Ry

     iteration # 21     ecut=    35.00 Ry     beta= 0.10
     Davidson diagonalization with overlap
     ethr =  1.21E-08,  avg # of iterations =  4.0

     negative rho (up, down):  2.245E-03 0.000E+00

     total cpu time spent up to now is     2060.9 secs

     total energy              =    -188.46878013 Ry
     estimated scf accuracy    <       0.00000358 Ry

     iteration # 22     ecut=    35.00 Ry     beta= 0.10
     Davidson diagonalization with overlap
     ethr =  1.21E-08,  avg # of iterations =  2.0

     negative rho (up, down):  2.187E-03 0.000E+00

     total cpu time spent up to now is     2068.0 secs

     total energy              =    -188.46878422 Ry
     estimated scf accuracy    <       0.00000128 Ry

     iteration # 23     ecut=    35.00 Ry     beta= 0.10
     Davidson diagonalization with overlap
     ethr =  4.93E-09,  avg # of iterations =  3.5

     negative rho (up, down):  1.703E-03 0.000E+00

     total cpu time spent up to now is     2076.3 secs

     End of self-consistent calculation

          k = 0.0000 0.0000 0.0000 (  5141 PWs)   bands (ev):

   -69.4614 -43.2768 -43.2768 -43.0949 -19.7201 -17.3217 -11.3618  -8.7159
    -8.7159  -6.5777  -6.2287  -6.2287  -4.3808  -3.1274  -3.1274  -2.7126
    -2.7126

          k = 0.0000 0.2887 0.0000 (  5091 PWs)   bands (ev):

   -69.4604 -43.2817 -43.2760 -43.0919 -19.4049 -17.0979 -11.0774  -9.6502
    -8.5642  -7.4331  -6.6660  -6.3219  -4.7923  -3.6261  -3.4904  -3.3469
    -2.5257

          k = 0.0000-0.5774 0.0000 (  5066 PWs)   bands (ev):

   -69.4595 -43.2908 -43.2744 -43.0902 -19.0582 -16.8387 -10.8003 -10.4366
    -8.4556  -8.3999  -6.9042  -6.3413  -5.0761  -4.2228  -4.0524  -2.8873
    -2.1491

          k = 0.2500 0.4330 0.0000 (  5093 PWs)   bands (ev):

   -69.4596 -43.2918 -43.2826 -43.0896 -19.0640 -16.8399 -10.7746 -10.0407
    -9.0236  -8.1441  -7.3111  -6.3390  -5.1680  -4.3594  -3.6694  -3.1361
    -2.2778

     the Fermi energy is    -4.4311 ev

!    total energy              =    -188.46880457 Ry
     estimated scf accuracy    <       0.00000092 Ry
     smearing contrib. (-TS)   =      -0.00086452 Ry
     internal energy E=F+TS    =    -188.46794005 Ry

     The total energy is F=E-TS. E is the sum of the following terms:
     one-electron contribution =   -1284.96559356 Ry
     hartree contribution      =     638.80149150 Ry
     xc contribution           =     -32.39223185 Ry
     ewald contribution        =     490.08839386 Ry

     convergence has been achieved in  23 iterations

     negative rho (up, down):  1.703E-03 0.000E+00

     Forces acting on atoms (cartesian axes, Ry/au):

     atom    1 type  4   force =     0.00000000   -0.00000000   -0.04543338
     atom    2 type  2   force =     0.00000000    0.00000000    0.16368502
     atom    3 type  3   force =     0.00000000   -0.00000000   -0.03303032
     atom    4 type  1   force =     0.00000000   -0.00000000   -0.08522132

     Total force =     0.192901     Total SCF correction =     0.002045


     Computing stress (Cartesian axis) and pressure


     negative rho (up, down):  1.703E-03 0.000E+00
          total   stress  (Ry/bohr**3)                   (kbar)     P=      -67.17
  -0.00052622   0.00000000   0.00000000          -77.41        0.00        0.00
   0.00000000  -0.00052622   0.00000000            0.00      -77.41        0.00
   0.00000000   0.00000000  -0.00031732            0.00        0.00      -46.68

     Energy error            =      6.3E-02 Ry
     Gradient error          =      1.6E-01 Ry/Bohr

     number of scf cycles    =   2
     number of bfgs steps    =   1

     energy             old  =    -188.4060008448 Ry
     energy             new  =    -188.4688045703 Ry

     CASE: energy            _new < energy            _old

     new trust radius        =       0.1258254217 bohr
     new conv_thr            =       0.0000010000 Ry


ATOMIC_POSITIONS (angstrom)
V                0.0000000000       -0.0000000000        0.0433099209
S                1.8604463800        1.0741292200        1.1730648258
Se               1.8604463800        1.0741292200       -1.4450096975
H                1.8604463800        1.0741292200        2.6997044364



     Writing config-only to output data dir ./tmp/candidate_04_VSSe_H_relaxed.save/ :
     XML data file
     NEW-OLD atomic charge density approx. for the potential

     Check: negative core charge=   -0.000002

     negative rho (up, down):  1.749E-03 0.000E+00

     total cpu time spent up to now is     2093.2 secs

     per-process dynamical memory:   155.1 Mb

     Self-consistent Calculation

     iteration #  1     ecut=    35.00 Ry     beta= 0.10
     Davidson diagonalization with overlap
     ethr =  1.00E-06,  avg # of iterations = 11.0
     Minimization algorithm failed to find Fermi energy: reverting to bisection
     Possible cause: smearing is larger than the electronic band-gap.

     negative rho (up, down):  1.651E-03 0.000E+00

     total cpu time spent up to now is     2216.6 secs

     total energy              =    -188.49389359 Ry
     estimated scf accuracy    <       0.00607328 Ry

     iteration #  2     ecut=    35.00 Ry     beta= 0.10
     Davidson diagonalization with overlap
     ethr =  2.34E-05,  avg # of iterations =  1.0
     Minimization algorithm failed to find Fermi energy: reverting to bisection
     Possible cause: smearing is larger than the electronic band-gap.

     negative rho (up, down):  3.556E-03 0.000E+00

     total cpu time spent up to now is     2249.9 secs

     total energy              =    -188.49302457 Ry
     estimated scf accuracy    <       0.00495504 Ry

     iteration #  3     ecut=    35.00 Ry     beta= 0.10
     Davidson diagonalization with overlap
     ethr =  1.91E-05,  avg # of iterations =  1.0
     Minimization algorithm failed to find Fermi energy: reverting to bisection
     Possible cause: smearing is larger than the electronic band-gap.

     negative rho (up, down):  4.750E-03 0.000E+00

     total cpu time spent up to now is     2277.2 secs

     total energy              =    -188.49275895 Ry
     estimated scf accuracy    <       0.00187591 Ry

     iteration #  4     ecut=    35.00 Ry     beta= 0.10
     Davidson diagonalization with overlap
     ethr =  7.22E-06,  avg # of iterations =  2.0

     negative rho (up, down):  6.511E-03 0.000E+00

     total cpu time spent up to now is     2307.3 secs

     total energy              =    -188.49244132 Ry
     estimated scf accuracy    <       0.00083107 Ry

     iteration #  5     ecut=    35.00 Ry     beta= 0.10
     Davidson diagonalization with overlap
     ethr =  3.20E-06,  avg # of iterations =  2.5
     Minimization algorithm failed to find Fermi energy: reverting to bisection
     Possible cause: smearing is larger than the electronic band-gap.

     negative rho (up, down):  4.921E-03 0.000E+00

     total cpu time spent up to now is     2331.9 secs

     total energy              =    -188.49270210 Ry
     estimated scf accuracy    <       0.00023154 Ry

     iteration #  6     ecut=    35.00 Ry     beta= 0.10
     Davidson diagonalization with overlap
     ethr =  8.91E-07,  avg # of iterations =  2.2

     negative rho (up, down):  3.549E-03 0.000E+00

     total cpu time spent up to now is     2339.8 secs

     total energy              =    -188.49280002 Ry
     estimated scf accuracy    <       0.00034863 Ry

     iteration #  7     ecut=    35.00 Ry     beta= 0.10
     Davidson diagonalization with overlap
     ethr =  8.91E-07,  avg # of iterations =  2.8
     Minimization algorithm failed to find Fermi energy: reverting to bisection
     Possible cause: smearing is larger than the electronic band-gap.

     negative rho (up, down):  3.215E-03 0.000E+00

     total cpu time spent up to now is     2348.0 secs

     total energy              =    -188.49289602 Ry
     estimated scf accuracy    <       0.00008150 Ry

     iteration #  8     ecut=    35.00 Ry     beta= 0.10
     Davidson diagonalization with overlap
     ethr =  3.13E-07,  avg # of iterations =  2.5
     Minimization algorithm failed to find Fermi energy: reverting to bisection
     Possible cause: smearing is larger than the electronic band-gap.

     negative rho (up, down):  2.605E-03 0.000E+00

     total cpu time spent up to now is     2354.7 secs

     total energy              =    -188.49297812 Ry
     estimated scf accuracy    <       0.00011534 Ry

     iteration #  9     ecut=    35.00 Ry     beta= 0.10
     Davidson diagonalization with overlap
     ethr =  3.13E-07,  avg # of iterations =  1.2
     Minimization algorithm failed to find Fermi energy: reverting to bisection
     Possible cause: smearing is larger than the electronic band-gap.

     negative rho (up, down):  2.021E-03 0.000E+00

     total cpu time spent up to now is     2362.1 secs

     total energy              =    -188.49303180 Ry
     estimated scf accuracy    <       0.00011547 Ry

     iteration # 10     ecut=    35.00 Ry     beta= 0.10
     Davidson diagonalization with overlap
     ethr =  3.13E-07,  avg # of iterations =  2.0
     Minimization algorithm failed to find Fermi energy: reverting to bisection
     Possible cause: smearing is larger than the electronic band-gap.

     negative rho (up, down):  2.500E-03 0.000E+00

     total cpu time spent up to now is     2369.2 secs

     total energy              =    -188.49301055 Ry
     estimated scf accuracy    <       0.00007287 Ry

     iteration # 11     ecut=    35.00 Ry     beta= 0.10
     Davidson diagonalization with overlap
     ethr =  2.80E-07,  avg # of iterations =  1.8
     Minimization algorithm failed to find Fermi energy: reverting to bisection
     Possible cause: smearing is larger than the electronic band-gap.

     negative rho (up, down):  2.288E-03 0.000E+00

     total cpu time spent up to now is     2375.1 secs

     total energy              =    -188.49304360 Ry
     estimated scf accuracy    <       0.00001817 Ry

     iteration # 12     ecut=    35.00 Ry     beta= 0.10
     Davidson diagonalization with overlap
     ethr =  6.99E-08,  avg # of iterations =  2.0
     Minimization algorithm failed to find Fermi energy: reverting to bisection
     Possible cause: smearing is larger than the electronic band-gap.

     negative rho (up, down):  1.793E-03 0.000E+00

     total cpu time spent up to now is     2381.8 secs

     total energy              =    -188.49310718 Ry
     estimated scf accuracy    <       0.00000895 Ry

     iteration # 13     ecut=    35.00 Ry     beta= 0.10
     Davidson diagonalization with overlap
     ethr =  3.44E-08,  avg # of iterations =  2.0
     Minimization algorithm failed to find Fermi energy: reverting to bisection
     Possible cause: smearing is larger than the electronic band-gap.

     negative rho (up, down):  1.926E-03 0.000E+00

     total cpu time spent up to now is     2389.3 secs

     total energy              =    -188.49312991 Ry
     estimated scf accuracy    <       0.00000561 Ry

     iteration # 14     ecut=    35.00 Ry     beta= 0.10
     Davidson diagonalization with overlap
     ethr =  2.16E-08,  avg # of iterations =  4.2
     Minimization algorithm failed to find Fermi energy: reverting to bisection
     Possible cause: smearing is larger than the electronic band-gap.

     negative rho (up, down):  1.813E-03 0.000E+00

     total cpu time spent up to now is     2399.6 secs

     total energy              =    -188.49314071 Ry
     estimated scf accuracy    <       0.00001375 Ry

     iteration # 15     ecut=    35.00 Ry     beta= 0.10
     Davidson diagonalization with overlap
     ethr =  2.16E-08,  avg # of iterations =  1.0
     Minimization algorithm failed to find Fermi energy: reverting to bisection
     Possible cause: smearing is larger than the electronic band-gap.

     negative rho (up, down):  1.829E-03 0.000E+00

     total cpu time spent up to now is     2405.0 secs

     total energy              =    -188.49315124 Ry
     estimated scf accuracy    <       0.00001308 Ry

     iteration # 16     ecut=    35.00 Ry     beta= 0.10
     Davidson diagonalization with overlap
     ethr =  2.16E-08,  avg # of iterations =  1.2
     Minimization algorithm failed to find Fermi energy: reverting to bisection
     Possible cause: smearing is larger than the electronic band-gap.

     negative rho (up, down):  1.895E-03 0.000E+00

     total cpu time spent up to now is     2411.0 secs

     total energy              =    -188.49314926 Ry
     estimated scf accuracy    <       0.00001908 Ry

     iteration # 17     ecut=    35.00 Ry     beta= 0.10
     Davidson diagonalization with overlap
     ethr =  2.16E-08,  avg # of iterations =  3.8
     Minimization algorithm failed to find Fermi energy: reverting to bisection
     Possible cause: smearing is larger than the electronic band-gap.

     negative rho (up, down):  1.823E-03 0.000E+00

     total cpu time spent up to now is     2419.2 secs

     total energy              =    -188.49316927 Ry
     estimated scf accuracy    <       0.00000673 Ry

     iteration # 18     ecut=    35.00 Ry     beta= 0.10
     Davidson diagonalization with overlap
     ethr =  2.16E-08,  avg # of iterations =  1.2
     Minimization algorithm failed to find Fermi energy: reverting to bisection
     Possible cause: smearing is larger than the electronic band-gap.

     negative rho (up, down):  1.547E-03 0.000E+00

     total cpu time spent up to now is     2425.3 secs

     total energy              =    -188.49318393 Ry
     estimated scf accuracy    <       0.00000372 Ry

     iteration # 19     ecut=    35.00 Ry     beta= 0.10
     Davidson diagonalization with overlap
     ethr =  1.43E-08,  avg # of iterations =  2.5
     Minimization algorithm failed to find Fermi energy: reverting to bisection
     Possible cause: smearing is larger than the electronic band-gap.

     negative rho (up, down):  1.508E-03 0.000E+00

     total cpu time spent up to now is     2432.8 secs

     total energy              =    -188.49318899 Ry
     estimated scf accuracy    <       0.00000179 Ry

     iteration # 20     ecut=    35.00 Ry     beta= 0.10
     Davidson diagonalization with overlap
     ethr =  6.90E-09,  avg # of iterations =  1.2
     Minimization algorithm failed to find Fermi energy: reverting to bisection
     Possible cause: smearing is larger than the electronic band-gap.

     negative rho (up, down):  1.736E-03 0.000E+00

     total cpu time spent up to now is     2438.6 secs

     total energy              =    -188.49318824 Ry
     estimated scf accuracy    <       0.00000150 Ry

     iteration # 21     ecut=    35.00 Ry     beta= 0.10
     Davidson diagonalization with overlap
     ethr =  5.78E-09,  avg # of iterations =  3.5

     negative rho (up, down):  1.768E-03 0.000E+00

     total cpu time spent up to now is     2446.4 secs

     total energy              =    -188.49318918 Ry
     estimated scf accuracy    <       0.00000124 Ry

     iteration # 22     ecut=    35.00 Ry     beta= 0.10
     Davidson diagonalization with overlap
     ethr =  4.78E-09,  avg # of iterations =  1.2
     Minimization algorithm failed to find Fermi energy: reverting to bisection
     Possible cause: smearing is larger than the electronic band-gap.

     negative rho (up, down):  1.675E-03 0.000E+00

     total cpu time spent up to now is     2454.2 secs

     End of self-consistent calculation

          k = 0.0000 0.0000 0.0000 (  5141 PWs)   bands (ev):

   -69.3054 -43.1126 -43.1126 -42.9328 -19.4323 -17.2363 -11.4723  -8.3093
    -8.3093  -6.5753  -6.0418  -6.0418  -4.1982  -2.9957  -2.9957  -2.6611
    -2.6611

          k = 0.0000 0.2887 0.0000 (  5091 PWs)   bands (ev):

   -69.3045 -43.1166 -43.1117 -42.9298 -19.1309 -16.9970 -11.2093  -9.3210
    -8.2101  -7.2560  -6.4442  -6.2862  -4.6260  -3.4504  -3.3437  -3.1993
    -2.4323

          k = 0.0000-0.5774 0.0000 (  5066 PWs)   bands (ev):

   -69.3036 -43.1249 -43.1099 -42.9282 -18.8011 -16.7169 -10.9457 -10.1768
    -8.2242  -8.1729  -6.6360  -6.2772  -4.8775  -3.9623  -3.8614  -2.7422
    -2.0444

          k = 0.2500 0.4330 0.0000 (  5093 PWs)   bands (ev):

   -69.3037 -43.1260 -43.1179 -42.9276 -18.8064 -16.7189 -10.9389  -9.7595
    -8.7596  -7.9309  -7.0995  -6.2459  -4.9566  -4.1204  -3.5010  -2.9605
    -2.1699

     the Fermi energy is    -4.2030 ev

!    total energy              =    -188.49320625 Ry
     estimated scf accuracy    <       0.00000041 Ry
     smearing contrib. (-TS)   =      -0.00089803 Ry
     internal energy E=F+TS    =    -188.49230822 Ry

     The total energy is F=E-TS. E is the sum of the following terms:
     one-electron contribution =   -1278.11155057 Ry
     hartree contribution      =     635.53567580 Ry
     xc contribution           =     -32.38521342 Ry
     ewald contribution        =     486.46877997 Ry

     convergence has been achieved in  22 iterations

     negative rho (up, down):  1.675E-03 0.000E+00

     Forces acting on atoms (cartesian axes, Ry/au):

     atom    1 type  4   force =     0.00000000   -0.00000000   -0.02368427
     atom    2 type  2   force =     0.00000000   -0.00000000    0.11302490
     atom    3 type  3   force =     0.00000000   -0.00000000   -0.02238464
     atom    4 type  1   force =    -0.00000000    0.00000000   -0.06695599

     Total force =     0.135350     Total SCF correction =     0.001380


     Computing stress (Cartesian axis) and pressure


     negative rho (up, down):  1.675E-03 0.000E+00
          total   stress  (Ry/bohr**3)                   (kbar)     P=      -69.92
  -0.00054925   0.00000000   0.00000000          -80.80        0.00        0.00
   0.00000000  -0.00054925   0.00000000            0.00      -80.80        0.00
   0.00000000  -0.00000000  -0.00032735            0.00       -0.00      -48.16

     Energy error            =      2.4E-02 Ry
     Gradient error          =      1.1E-01 Ry/Bohr

     number of scf cycles    =   3
     number of bfgs steps    =   2

     energy             old  =    -188.4688045703 Ry
     energy             new  =    -188.4932062514 Ry

     CASE: energy            _new < energy            _old

     new trust radius        =       0.1384079639 bohr
     new conv_thr            =       0.0000010000 Ry


ATOMIC_POSITIONS (angstrom)
V                0.0000000000       -0.0000000000        0.0287106465
S                1.8604463800        1.0741292200        1.2463071661
Se               1.8604463800        1.0741292200       -1.4600893390
H                1.8604463800        1.0741292200        2.6561410121



     Writing config-only to output data dir ./tmp/candidate_04_VSSe_H_relaxed.save/ :
     XML data file
     NEW-OLD atomic charge density approx. for the potential

     Check: negative core charge=   -0.000002

     negative rho (up, down):  1.712E-03 0.000E+00

     total cpu time spent up to now is     2471.8 secs

     per-process dynamical memory:   155.1 Mb

     Self-consistent Calculation

     iteration #  1     ecut=    35.00 Ry     beta= 0.10
     Davidson diagonalization with overlap
     ethr =  1.00E-06,  avg # of iterations = 10.2

     negative rho (up, down):  1.633E-03 0.000E+00

     total cpu time spent up to now is     2489.6 secs

     total energy              =    -188.50903250 Ry
     estimated scf accuracy    <       0.00617607 Ry

     iteration #  2     ecut=    35.00 Ry     beta= 0.10
     Davidson diagonalization with overlap
     ethr =  2.38E-05,  avg # of iterations =  1.0

     negative rho (up, down):  2.463E-03 0.000E+00

     total cpu time spent up to now is     2496.7 secs

     total energy              =    -188.50826199 Ry
     estimated scf accuracy    <       0.00460598 Ry

     iteration #  3     ecut=    35.00 Ry     beta= 0.10
     Davidson diagonalization with overlap
     ethr =  1.77E-05,  avg # of iterations =  1.0

     negative rho (up, down):  3.414E-03 0.000E+00

     total cpu time spent up to now is     2503.1 secs

     total energy              =    -188.50812262 Ry
     estimated scf accuracy    <       0.00145697 Ry

     iteration #  4     ecut=    35.00 Ry     beta= 0.10
     Davidson diagonalization with overlap
     ethr =  5.60E-06,  avg # of iterations =  2.0

     negative rho (up, down):  5.073E-03 0.000E+00

     total cpu time spent up to now is     2509.7 secs

     total energy              =    -188.50780767 Ry
     estimated scf accuracy    <       0.00090417 Ry

     iteration #  5     ecut=    35.00 Ry     beta= 0.10
     Davidson diagonalization with overlap
     ethr =  3.48E-06,  avg # of iterations =  2.0

     negative rho (up, down):  4.227E-03 0.000E+00

     total cpu time spent up to now is     2519.4 secs

     total energy              =    -188.50790492 Ry
     estimated scf accuracy    <       0.00027462 Ry

     iteration #  6     ecut=    35.00 Ry     beta= 0.10
     Davidson diagonalization with overlap
     ethr =  1.06E-06,  avg # of iterations =  3.8

     negative rho (up, down):  2.857E-03 0.000E+00

     total cpu time spent up to now is     2528.7 secs

     total energy              =    -188.50801611 Ry
     estimated scf accuracy    <       0.00079238 Ry

     iteration #  7     ecut=    35.00 Ry     beta= 0.10
     Davidson diagonalization with overlap
     ethr =  1.06E-06,  avg # of iterations =  2.5

     negative rho (up, down):  2.186E-03 0.000E+00

     total cpu time spent up to now is     2539.5 secs

     total energy              =    -188.50815550 Ry
     estimated scf accuracy    <       0.00005796 Ry

     iteration #  8     ecut=    35.00 Ry     beta= 0.10
     Davidson diagonalization with overlap
     ethr =  2.23E-07,  avg # of iterations =  3.2

     negative rho (up, down):  2.058E-03 0.000E+00

     total cpu time spent up to now is     2547.0 secs

     total energy              =    -188.50817521 Ry
     estimated scf accuracy    <       0.00006786 Ry

     iteration #  9     ecut=    35.00 Ry     beta= 0.10
     Davidson diagonalization with overlap
     ethr =  2.23E-07,  avg # of iterations =  1.0

     negative rho (up, down):  1.809E-03 0.000E+00

     total cpu time spent up to now is     2552.7 secs

     total energy              =    -188.50819818 Ry
     estimated scf accuracy    <       0.00004995 Ry

     iteration # 10     ecut=    35.00 Ry     beta= 0.10
     Davidson diagonalization with overlap
     ethr =  1.92E-07,  avg # of iterations =  1.0

     negative rho (up, down):  1.764E-03 0.000E+00

     total cpu time spent up to now is     2558.5 secs

     total energy              =    -188.50820939 Ry
     estimated scf accuracy    <       0.00003952 Ry

     iteration # 11     ecut=    35.00 Ry     beta= 0.10
     Davidson diagonalization with overlap
     ethr =  1.52E-07,  avg # of iterations =  1.5

     negative rho (up, down):  1.714E-03 0.000E+00

     total cpu time spent up to now is     2565.4 secs

     total energy              =    -188.50822746 Ry
     estimated scf accuracy    <       0.00001995 Ry

     iteration # 12     ecut=    35.00 Ry     beta= 0.10
     Davidson diagonalization with overlap
     ethr =  7.67E-08,  avg # of iterations =  2.0

     negative rho (up, down):  1.534E-03 0.000E+00

     total cpu time spent up to now is     2583.3 secs

     total energy              =    -188.50824966 Ry
     estimated scf accuracy    <       0.00001320 Ry

     iteration # 13     ecut=    35.00 Ry     beta= 0.10
     Davidson diagonalization with overlap
     ethr =  5.08E-08,  avg # of iterations =  1.8

     negative rho (up, down):  1.581E-03 0.000E+00

     total cpu time spent up to now is     2589.8 secs

     total energy              =    -188.50826850 Ry
     estimated scf accuracy    <       0.00000644 Ry

     iteration # 14     ecut=    35.00 Ry     beta= 0.10
     Davidson diagonalization with overlap
     ethr =  2.48E-08,  avg # of iterations =  2.5

     negative rho (up, down):  1.472E-03 0.000E+00

     total cpu time spent up to now is     2597.4 secs

     total energy              =    -188.50827706 Ry
     estimated scf accuracy    <       0.00000594 Ry

     iteration # 15     ecut=    35.00 Ry     beta= 0.10
     Davidson diagonalization with overlap
     ethr =  2.28E-08,  avg # of iterations =  1.0

     negative rho (up, down):  1.575E-03 0.000E+00

     total cpu time spent up to now is     2608.2 secs

     total energy              =    -188.50828159 Ry
     estimated scf accuracy    <       0.00000451 Ry

     iteration # 16     ecut=    35.00 Ry     beta= 0.10
     Davidson diagonalization with overlap
     ethr =  1.73E-08,  avg # of iterations =  2.2

     negative rho (up, down):  1.675E-03 0.000E+00

     total cpu time spent up to now is     2614.5 secs

     total energy              =    -188.50828571 Ry
     estimated scf accuracy    <       0.00000145 Ry

     iteration # 17     ecut=    35.00 Ry     beta= 0.10
     Davidson diagonalization with overlap
     ethr =  5.57E-09,  avg # of iterations =  2.2

     negative rho (up, down):  1.626E-03 0.000E+00

     total cpu time spent up to now is     2627.1 secs

     total energy              =    -188.50828939 Ry
     estimated scf accuracy    <       0.00000124 Ry

     iteration # 18     ecut=    35.00 Ry     beta= 0.10
     Davidson diagonalization with overlap
     ethr =  4.75E-09,  avg # of iterations =  1.0

     negative rho (up, down):  1.615E-03 0.000E+00

     total cpu time spent up to now is     2633.6 secs

     End of self-consistent calculation

          k = 0.0000 0.0000 0.0000 (  5141 PWs)   bands (ev):

   -69.1751 -42.9710 -42.9710 -42.8041 -19.2888 -17.1618 -11.6523  -7.9255
    -7.9255  -6.5569  -5.8698  -5.8698  -4.0419  -2.9973  -2.9973  -2.5228
    -2.5228

          k = 0.0000 0.2887 0.0000 (  5091 PWs)   bands (ev):

   -69.1742 -42.9742 -42.9700 -42.8012 -19.0129 -16.8993 -11.4155  -9.0171
    -7.8824  -7.0861  -6.2425  -6.2331  -4.4709  -3.3345  -3.2482  -3.0417
    -2.3493

          k = 0.0000-0.5774 0.0000 (  5066 PWs)   bands (ev):

   -69.1733 -42.9816 -42.9680 -42.7996 -18.7138 -16.5895 -11.1774  -9.9273
    -8.0635  -7.9142  -6.3826  -6.1942  -4.6894  -3.7332  -3.6963  -2.6205
    -1.9889

          k = 0.2500 0.4330 0.0000 (  5093 PWs)   bands (ev):

   -69.1733 -42.9830 -42.9759 -42.7990 -18.7181 -16.5928 -11.1753  -9.5035
    -8.5199  -7.7381  -6.8970  -6.1378  -4.7594  -3.9035  -3.3638  -2.8018
    -2.1191

     the Fermi energy is    -4.0057 ev

!    total energy              =    -188.50831129 Ry
     estimated scf accuracy    <       0.00000095 Ry
     smearing contrib. (-TS)   =      -0.00069930 Ry
     internal energy E=F+TS    =    -188.50761199 Ry

     The total energy is F=E-TS. E is the sum of the following terms:
     one-electron contribution =   -1270.57245549 Ry
     hartree contribution      =     631.91155079 Ry
     xc contribution           =     -32.39290766 Ry
     ewald contribution        =     482.54620037 Ry

     convergence has been achieved in  18 iterations

     negative rho (up, down):  1.615E-03 0.000E+00

     Forces acting on atoms (cartesian axes, Ry/au):

     atom    1 type  4   force =     0.00000000   -0.00000000   -0.00413305
     atom    2 type  2   force =     0.00000000   -0.00000000    0.03349210
     atom    3 type  3   force =     0.00000000    0.00000000   -0.01286771
     atom    4 type  1   force =     0.00000000    0.00000000   -0.01649135

     Total force =     0.039703     Total SCF correction =     0.004363
     SCF correction compared to forces is large: reduce conv_thr to get better values


     Computing stress (Cartesian axis) and pressure


     negative rho (up, down):  1.615E-03 0.000E+00
          total   stress  (Ry/bohr**3)                   (kbar)     P=      -69.61
  -0.00056845   0.00000000   0.00000000          -83.62        0.00        0.00
   0.00000000  -0.00056845   0.00000000            0.00      -83.62        0.00
   0.00000000   0.00000000  -0.00028266            0.00        0.00      -41.58

     Energy error            =      1.5E-02 Ry
     Gradient error          =      3.3E-02 Ry/Bohr

     number of scf cycles    =   4
     number of bfgs steps    =   3

     energy             old  =    -188.4932062514 Ry
     energy             new  =    -188.5083112917 Ry

     CASE: energy            _new < energy            _old

     new trust radius        =       0.0581622548 bohr
     new conv_thr            =       0.0000003349 Ry


ATOMIC_POSITIONS (angstrom)
V                0.0000000000       -0.0000000000        0.0246786875
S                1.8604463800        1.0741292200        1.2770853058
Se               1.8604463800        1.0741292200       -1.4710935726
H                1.8604463800        1.0741292200        2.6403990648



     Writing config-only to output data dir ./tmp/candidate_04_VSSe_H_relaxed.save/ :
     XML data file
     NEW-OLD atomic charge density approx. for the potential

     Check: negative core charge=   -0.000002

     negative rho (up, down):  1.619E-03 0.000E+00

     total cpu time spent up to now is     2649.9 secs

     per-process dynamical memory:   155.1 Mb

     Self-consistent Calculation

     iteration #  1     ecut=    35.00 Ry     beta= 0.10
     Davidson diagonalization with overlap
     ethr =  1.00E-06,  avg # of iterations =  7.5

     negative rho (up, down):  1.600E-03 0.000E+00

     total cpu time spent up to now is     2673.5 secs

     total energy              =    -188.50935280 Ry
     estimated scf accuracy    <       0.00109285 Ry

     iteration #  2     ecut=    35.00 Ry     beta= 0.10
     Davidson diagonalization with overlap
     ethr =  4.20E-06,  avg # of iterations =  1.0

     negative rho (up, down):  1.620E-03 0.000E+00

     total cpu time spent up to now is     2679.3 secs

     total energy              =    -188.50920539 Ry
     estimated scf accuracy    <       0.00076508 Ry

     iteration #  3     ecut=    35.00 Ry     beta= 0.10
     Davidson diagonalization with overlap
     ethr =  2.94E-06,  avg # of iterations =  1.5

     negative rho (up, down):  1.579E-03 0.000E+00

     total cpu time spent up to now is     2685.6 secs

     total energy              =    -188.50924470 Ry
     estimated scf accuracy    <       0.00015119 Ry

     iteration #  4     ecut=    35.00 Ry     beta= 0.10
     Davidson diagonalization with overlap
     ethr =  5.82E-07,  avg # of iterations =  1.8

     negative rho (up, down):  1.737E-03 0.000E+00

     total cpu time spent up to now is     2693.9 secs

     total energy              =    -188.50920419 Ry
     estimated scf accuracy    <       0.00012887 Ry

     iteration #  5     ecut=    35.00 Ry     beta= 0.10
     Davidson diagonalization with overlap
     ethr =  4.96E-07,  avg # of iterations =  2.0

     negative rho (up, down):  1.658E-03 0.000E+00

     total cpu time spent up to now is     2701.2 secs

     total energy              =    -188.50921106 Ry
     estimated scf accuracy    <       0.00003298 Ry

     iteration #  6     ecut=    35.00 Ry     beta= 0.10
     Davidson diagonalization with overlap
     ethr =  1.27E-07,  avg # of iterations =  3.0

     negative rho (up, down):  1.441E-03 0.000E+00

     total cpu time spent up to now is     2709.3 secs

     total energy              =    -188.50921101 Ry
     estimated scf accuracy    <       0.00007649 Ry

     iteration #  7     ecut=    35.00 Ry     beta= 0.10
     Davidson diagonalization with overlap
     ethr =  1.27E-07,  avg # of iterations =  2.5

     negative rho (up, down):  1.409E-03 0.000E+00

     total cpu time spent up to now is     2716.6 secs

     total energy              =    -188.50922220 Ry
     estimated scf accuracy    <       0.00000812 Ry

     iteration #  8     ecut=    35.00 Ry     beta= 0.10
     Davidson diagonalization with overlap
     ethr =  3.12E-08,  avg # of iterations =  4.0

     negative rho (up, down):  1.405E-03 0.000E+00

     total cpu time spent up to now is     2727.4 secs

     total energy              =    -188.50922543 Ry
     estimated scf accuracy    <       0.00001251 Ry

     iteration #  9     ecut=    35.00 Ry     beta= 0.10
     Davidson diagonalization with overlap
     ethr =  3.12E-08,  avg # of iterations =  1.0

     negative rho (up, down):  1.365E-03 0.000E+00

     total cpu time spent up to now is     2733.3 secs

     total energy              =    -188.50922708 Ry
     estimated scf accuracy    <       0.00000967 Ry

     iteration # 10     ecut=    35.00 Ry     beta= 0.10
     Davidson diagonalization with overlap
     ethr =  3.12E-08,  avg # of iterations =  2.0

     negative rho (up, down):  1.341E-03 0.000E+00

     total cpu time spent up to now is     2740.0 secs

     total energy              =    -188.50922911 Ry
     estimated scf accuracy    <       0.00000729 Ry

     iteration # 11     ecut=    35.00 Ry     beta= 0.10
     Davidson diagonalization with overlap
     ethr =  2.80E-08,  avg # of iterations =  2.0

     negative rho (up, down):  1.385E-03 0.000E+00

     total cpu time spent up to now is     2747.5 secs

     total energy              =    -188.50922969 Ry
     estimated scf accuracy    <       0.00000434 Ry

     iteration # 12     ecut=    35.00 Ry     beta= 0.10
     Davidson diagonalization with overlap
     ethr =  1.67E-08,  avg # of iterations =  1.5

     negative rho (up, down):  1.409E-03 0.000E+00

     total cpu time spent up to now is     2753.7 secs

     total energy              =    -188.50923143 Ry
     estimated scf accuracy    <       0.00000119 Ry

     iteration # 13     ecut=    35.00 Ry     beta= 0.10
     Davidson diagonalization with overlap
     ethr =  4.59E-09,  avg # of iterations =  3.5

     negative rho (up, down):  1.422E-03 0.000E+00

     total cpu time spent up to now is     2762.1 secs

     total energy              =    -188.50923252 Ry
     estimated scf accuracy    <       0.00000279 Ry

     iteration # 14     ecut=    35.00 Ry     beta= 0.10
     Davidson diagonalization with overlap
     ethr =  4.59E-09,  avg # of iterations =  3.5

     negative rho (up, down):  1.482E-03 0.000E+00

     total cpu time spent up to now is     2771.1 secs

     total energy              =    -188.50923308 Ry
     estimated scf accuracy    <       0.00000079 Ry

     iteration # 15     ecut=    35.00 Ry     beta= 0.10
     Davidson diagonalization with overlap
     ethr =  3.04E-09,  avg # of iterations =  2.2

     negative rho (up, down):  1.499E-03 0.000E+00

     total cpu time spent up to now is     2777.4 secs

     total energy              =    -188.50923361 Ry
     estimated scf accuracy    <       0.00000142 Ry

     iteration # 16     ecut=    35.00 Ry     beta= 0.10
     Davidson diagonalization with overlap
     ethr =  3.04E-09,  avg # of iterations =  1.2

     negative rho (up, down):  1.514E-03 0.000E+00

     total cpu time spent up to now is     2784.2 secs

     total energy              =    -188.50923373 Ry
     estimated scf accuracy    <       0.00000082 Ry

     iteration # 17     ecut=    35.00 Ry     beta= 0.10
     Davidson diagonalization with overlap
     ethr =  3.04E-09,  avg # of iterations =  3.0

     negative rho (up, down):  1.592E-03 0.000E+00

     total cpu time spent up to now is     2792.3 secs

     End of self-consistent calculation

          k = 0.0000 0.0000 0.0000 (  5141 PWs)   bands (ev):

   -69.1288 -42.9197 -42.9197 -42.7593 -19.2712 -17.1188 -11.7179  -7.7731
    -7.7731  -6.5446  -5.7922  -5.7922  -3.9947  -3.0106  -3.0106  -2.4668
    -2.4668

          k = 0.0000 0.2887 0.0000 (  5091 PWs)   bands (ev):

   -69.1279 -42.9225 -42.9186 -42.7564 -19.0087 -16.8451 -11.4895  -8.8953
    -7.7544  -7.0124  -6.2217  -6.1377  -4.4146  -3.3000  -3.2214  -2.9840
    -2.3202

          k = 0.0000-0.5774 0.0000 (  5066 PWs)   bands (ev):

   -69.1271 -42.9296 -42.9165 -42.7549 -18.7251 -16.5217 -11.2576  -9.8258
    -7.9974  -7.8129  -6.2718  -6.1569  -4.6192  -3.6468  -3.6352  -2.5820
    -1.9807

          k = 0.2500 0.4330 0.0000 (  5093 PWs)   bands (ev):

   -69.1271 -42.9310 -42.9243 -42.7543 -18.7289 -16.5256 -11.2568  -9.4008
    -8.4250  -7.6571  -6.8109  -6.0936  -4.6815  -3.8203  -3.3173  -2.7477
    -2.1141

     the Fermi energy is    -3.9371 ev

!    total energy              =    -188.50923584 Ry
     estimated scf accuracy    <       0.00000024 Ry
     smearing contrib. (-TS)   =      -0.00053270 Ry
     internal energy E=F+TS    =    -188.50870314 Ry

     The total energy is F=E-TS. E is the sum of the following terms:
     one-electron contribution =   -1266.68236776 Ry
     hartree contribution      =     630.00681803 Ry
     xc contribution           =     -32.39597152 Ry
     ewald contribution        =     480.56281811 Ry

     convergence has been achieved in  17 iterations

     negative rho (up, down):  1.592E-03 0.000E+00

     Forces acting on atoms (cartesian axes, Ry/au):

     atom    1 type  4   force =     0.00000000    0.00000000    0.00245895
     atom    2 type  2   force =     0.00000000   -0.00000000   -0.01131449
     atom    3 type  3   force =     0.00000000    0.00000000   -0.00736446
     atom    4 type  1   force =     0.00000000    0.00000000    0.01622001

     Total force =     0.021246     Total SCF correction =     0.001498


     Computing stress (Cartesian axis) and pressure


     negative rho (up, down):  1.592E-03 0.000E+00
          total   stress  (Ry/bohr**3)                   (kbar)     P=      -69.06
  -0.00057742  -0.00000000   0.00000000          -84.94       -0.00        0.00
  -0.00000000  -0.00057742   0.00000000           -0.00      -84.94        0.00
   0.00000000   0.00000000  -0.00025351            0.00        0.00      -37.29

     Energy error            =      9.2E-04 Ry
     Gradient error          =      1.6E-02 Ry/Bohr

     number of scf cycles    =   5
     number of bfgs steps    =   4

     energy             old  =    -188.5083112917 Ry
     energy             new  =    -188.5092358384 Ry

     CASE: energy            _new < energy            _old

     new trust radius        =       0.0142070445 bohr
     new conv_thr            =       0.0000000925 Ry


ATOMIC_POSITIONS (angstrom)
V                0.0000000000       -0.0000000000        0.0258898641
S                1.8604463800        1.0741292200        1.2705939897
Se               1.8604463800        1.0741292200       -1.4733314772
H                1.8604463800        1.0741292200        2.6479171090



     Writing config-only to output data dir ./tmp/candidate_04_VSSe_H_relaxed.save/ :
     XML data file
     NEW-OLD atomic charge density approx. for the potential

     Check: negative core charge=   -0.000002

     negative rho (up, down):  1.587E-03 0.000E+00

     total cpu time spent up to now is     2809.2 secs

     per-process dynamical memory:   155.1 Mb

     Self-consistent Calculation

     iteration #  1     ecut=    35.00 Ry     beta= 0.10
     Davidson diagonalization with overlap
     ethr =  1.00E-06,  avg # of iterations =  5.0

     negative rho (up, down):  1.594E-03 0.000E+00

     total cpu time spent up to now is     2819.2 secs

     total energy              =    -188.50948547 Ry
     estimated scf accuracy    <       0.00004458 Ry

     iteration #  2     ecut=    35.00 Ry     beta= 0.10
     Davidson diagonalization with overlap
     ethr =  1.71E-07,  avg # of iterations =  1.2

     negative rho (up, down):  1.649E-03 0.000E+00

     total cpu time spent up to now is     2827.4 secs

     total energy              =    -188.50947647 Ry
     estimated scf accuracy    <       0.00003663 Ry

     iteration #  3     ecut=    35.00 Ry     beta= 0.10
     Davidson diagonalization with overlap
     ethr =  1.41E-07,  avg # of iterations =  2.0

     negative rho (up, down):  1.664E-03 0.000E+00

     total cpu time spent up to now is     2834.0 secs

     total energy              =    -188.50947783 Ry
     estimated scf accuracy    <       0.00001002 Ry

     iteration #  4     ecut=    35.00 Ry     beta= 0.10
     Davidson diagonalization with overlap
     ethr =  3.85E-08,  avg # of iterations =  1.0

     negative rho (up, down):  1.729E-03 0.000E+00

     total cpu time spent up to now is     2839.5 secs

     total energy              =    -188.50947488 Ry
     estimated scf accuracy    <       0.00000564 Ry

     iteration #  5     ecut=    35.00 Ry     beta= 0.10
     Davidson diagonalization with overlap
     ethr =  2.17E-08,  avg # of iterations =  2.0

     negative rho (up, down):  1.724E-03 0.000E+00

     total cpu time spent up to now is     2848.5 secs

     total energy              =    -188.50947620 Ry
     estimated scf accuracy    <       0.00000082 Ry

     iteration #  6     ecut=    35.00 Ry     beta= 0.10
     Davidson diagonalization with overlap
     ethr =  3.14E-09,  avg # of iterations =  1.8

     negative rho (up, down):  1.731E-03 0.000E+00

     total cpu time spent up to now is     2854.4 secs

     total energy              =    -188.50947674 Ry
     estimated scf accuracy    <       0.00000091 Ry

     iteration #  7     ecut=    35.00 Ry     beta= 0.10
     Davidson diagonalization with overlap
     ethr =  3.14E-09,  avg # of iterations =  1.0

     negative rho (up, down):  1.741E-03 0.000E+00

     total cpu time spent up to now is     2860.8 secs

     total energy              =    -188.50947683 Ry
     estimated scf accuracy    <       0.00000060 Ry

     iteration #  8     ecut=    35.00 Ry     beta= 0.10
     Davidson diagonalization with overlap
     ethr =  2.29E-09,  avg # of iterations =  2.0

     negative rho (up, down):  1.737E-03 0.000E+00

     total cpu time spent up to now is     2868.2 secs

     total energy              =    -188.50947697 Ry
     estimated scf accuracy    <       0.00000043 Ry

     iteration #  9     ecut=    35.00 Ry     beta= 0.10
     Davidson diagonalization with overlap
     ethr =  1.67E-09,  avg # of iterations =  2.0

     negative rho (up, down):  1.738E-03 0.000E+00

     total cpu time spent up to now is     2874.8 secs

     total energy              =    -188.50947717 Ry
     estimated scf accuracy    <       0.00000019 Ry

     iteration # 10     ecut=    35.00 Ry     beta= 0.10
     Davidson diagonalization with overlap
     ethr =  7.22E-10,  avg # of iterations =  2.5

     negative rho (up, down):  1.717E-03 0.000E+00

     total cpu time spent up to now is     2881.9 secs

     total energy              =    -188.50947719 Ry
     estimated scf accuracy    <       0.00000044 Ry

     iteration # 11     ecut=    35.00 Ry     beta= 0.10
     Davidson diagonalization with overlap
     ethr =  7.22E-10,  avg # of iterations =  2.0

     negative rho (up, down):  1.694E-03 0.000E+00

     total cpu time spent up to now is     2888.8 secs

     total energy              =    -188.50947715 Ry
     estimated scf accuracy    <       0.00000015 Ry

     iteration # 12     ecut=    35.00 Ry     beta= 0.10
     Davidson diagonalization with overlap
     ethr =  5.87E-10,  avg # of iterations =  2.0

     negative rho (up, down):  1.678E-03 0.000E+00

     total cpu time spent up to now is     2896.6 secs

     total energy              =    -188.50947731 Ry
     estimated scf accuracy    <       0.00000011 Ry

     iteration # 13     ecut=    35.00 Ry     beta= 0.10
     Davidson diagonalization with overlap
     ethr =  4.18E-10,  avg # of iterations =  1.2

     negative rho (up, down):  1.596E-03 0.000E+00

     total cpu time spent up to now is     2910.0 secs

     End of self-consistent calculation

          k = 0.0000 0.0000 0.0000 (  5141 PWs)   bands (ev):

   -69.1326 -42.9246 -42.9246 -42.7619 -19.2509 -17.1139 -11.6848  -7.7933
    -7.7933  -6.5425  -5.7914  -5.7914  -4.0057  -2.9975  -2.9975  -2.4797
    -2.4797

          k = 0.0000 0.2887 0.0000 (  5091 PWs)   bands (ev):

   -69.1318 -42.9274 -42.9234 -42.7591 -18.9851 -16.8422 -11.4539  -8.9081
    -7.7711  -7.0151  -6.2207  -6.1392  -4.4225  -3.3014  -3.2200  -2.9948
    -2.3238

          k = 0.0000-0.5774 0.0000 (  5066 PWs)   bands (ev):

   -69.1309 -42.9345 -42.9214 -42.7575 -18.6977 -16.5212 -11.2199  -9.8344
    -8.0004  -7.8251  -6.2756  -6.1603  -4.6288  -3.6560  -3.6407  -2.5863
    -1.9800

          k = 0.2500 0.4330 0.0000 (  5093 PWs)   bands (ev):

   -69.1310 -42.9359 -42.9292 -42.7570 -18.7016 -16.5249 -11.2189  -9.4099
    -8.4348  -7.6598  -6.8159  -6.0993  -4.6890  -3.8288  -3.3216  -2.7564
    -2.1120

     the Fermi energy is    -3.9468 ev

!    total energy              =    -188.50947762 Ry
     estimated scf accuracy    <       0.00000006 Ry
     smearing contrib. (-TS)   =      -0.00052079 Ry
     internal energy E=F+TS    =    -188.50895683 Ry

     The total energy is F=E-TS. E is the sum of the following terms:
     one-electron contribution =   -1266.82227090 Ry
     hartree contribution      =     630.06458552 Ry
     xc contribution           =     -32.39002582 Ry
     ewald contribution        =     480.63875437 Ry

     convergence has been achieved in  13 iterations

     negative rho (up, down):  1.596E-03 0.000E+00

     Forces acting on atoms (cartesian axes, Ry/au):

     atom    1 type  4   force =     0.00000000    0.00000000    0.00013129
     atom    2 type  2   force =     0.00000000   -0.00000000    0.00154203
     atom    3 type  3   force =     0.00000000   -0.00000000   -0.00665833
     atom    4 type  1   force =     0.00000000   -0.00000000    0.00498501

     Total force =     0.008460     Total SCF correction =     0.001134
     SCF correction compared to forces is large: reduce conv_thr to get better values


     Computing stress (Cartesian axis) and pressure


     negative rho (up, down):  1.596E-03 0.000E+00
          total   stress  (Ry/bohr**3)                   (kbar)     P=      -70.13
  -0.00057820  -0.00000000   0.00000000          -85.06       -0.00        0.00
  -0.00000000  -0.00057820   0.00000000           -0.00      -85.06        0.00
   0.00000000  -0.00000000  -0.00027382            0.00       -0.00      -40.28

     Energy error            =      2.4E-04 Ry
     Gradient error          =      6.7E-03 Ry/Bohr

     number of scf cycles    =   6
     number of bfgs steps    =   5

     energy             old  =    -188.5092358384 Ry
     energy             new  =    -188.5094776181 Ry

     CASE: energy            _new < energy            _old

     new trust radius        =       0.0106197592 bohr
     new conv_thr            =       0.0000000242 Ry


ATOMIC_POSITIONS (angstrom)
V                0.0000000000       -0.0000000000        0.0260300115
S                1.8604463800        1.0741292200        1.2715623868
Se               1.8604463800        1.0741292200       -1.4789512118
H                1.8604463800        1.0741292200        2.6524282991



     Writing config-only to output data dir ./tmp/candidate_04_VSSe_H_relaxed.save/ :
     XML data file
     NEW-OLD atomic charge density approx. for the potential

     Check: negative core charge=   -0.000002

     negative rho (up, down):  1.592E-03 0.000E+00

     total cpu time spent up to now is     2926.8 secs

     per-process dynamical memory:   155.1 Mb

     Self-consistent Calculation

     iteration #  1     ecut=    35.00 Ry     beta= 0.10
     Davidson diagonalization with overlap
     ethr =  1.00E-06,  avg # of iterations =  3.2

     Threshold (ethr) on eigenvalues was too large:
     Diagonalizing with lowered threshold

     Davidson diagonalization with overlap
     ethr =  2.38E-08,  avg # of iterations =  3.5

     negative rho (up, down):  1.593E-03 0.000E+00

     total cpu time spent up to now is     2946.2 secs

     total energy              =    -188.50956986 Ry
     estimated scf accuracy    <       0.00000676 Ry

     iteration #  2     ecut=    35.00 Ry     beta= 0.10
     Davidson diagonalization with overlap
     ethr =  2.60E-08,  avg # of iterations =  1.0

     negative rho (up, down):  1.598E-03 0.000E+00

     total cpu time spent up to now is     2952.4 secs

     total energy              =    -188.50956856 Ry
     estimated scf accuracy    <       0.00000546 Ry

     iteration #  3     ecut=    35.00 Ry     beta= 0.10
     Davidson diagonalization with overlap
     ethr =  2.10E-08,  avg # of iterations =  1.8

     negative rho (up, down):  1.599E-03 0.000E+00

     total cpu time spent up to now is     2960.2 secs

     total energy              =    -188.50956877 Ry
     estimated scf accuracy    <       0.00000132 Ry

     iteration #  4     ecut=    35.00 Ry     beta= 0.10
     Davidson diagonalization with overlap
     ethr =  5.06E-09,  avg # of iterations =  1.2

     negative rho (up, down):  1.602E-03 0.000E+00

     total cpu time spent up to now is     2966.8 secs

     total energy              =    -188.50956849 Ry
     estimated scf accuracy    <       0.00000072 Ry

     iteration #  5     ecut=    35.00 Ry     beta= 0.10
     Davidson diagonalization with overlap
     ethr =  2.77E-09,  avg # of iterations =  2.2

     negative rho (up, down):  1.603E-03 0.000E+00

     total cpu time spent up to now is     2973.7 secs

     total energy              =    -188.50956861 Ry
     estimated scf accuracy    <       0.00000010 Ry

     iteration #  6     ecut=    35.00 Ry     beta= 0.10
     Davidson diagonalization with overlap
     ethr =  3.91E-10,  avg # of iterations =  3.8

     negative rho (up, down):  1.603E-03 0.000E+00

     total cpu time spent up to now is     2981.8 secs

     total energy              =    -188.50956871 Ry
     estimated scf accuracy    <       0.00000007 Ry

     iteration #  7     ecut=    35.00 Ry     beta= 0.10
     Davidson diagonalization with overlap
     ethr =  2.73E-10,  avg # of iterations =  2.0

     negative rho (up, down):  1.606E-03 0.000E+00

     total cpu time spent up to now is     2989.9 secs

     End of self-consistent calculation

          k = 0.0000 0.0000 0.0000 (  5141 PWs)   bands (ev):

   -69.1385 -42.9301 -42.9301 -42.7670 -19.2399 -17.1093 -11.6782  -7.7887
    -7.7887  -6.5495  -5.7832  -5.7832  -4.0190  -3.0007  -3.0007  -2.4922
    -2.4922

          k = 0.0000 0.2887 0.0000 (  5091 PWs)   bands (ev):

   -69.1376 -42.9329 -42.9290 -42.7641 -18.9741 -16.8368 -11.4465  -8.9035
    -7.7690  -7.0116  -6.2270  -6.1287  -4.4298  -3.3079  -3.2254  -3.0045
    -2.3334

          k = 0.0000-0.5774 0.0000 (  5066 PWs)   bands (ev):

   -69.1368 -42.9399 -42.9269 -42.7626 -18.6867 -16.5148 -11.2117  -9.8304
    -7.9993  -7.8251  -6.2638  -6.1668  -4.6344  -3.6568  -3.6443  -2.5952
    -1.9909

          k = 0.2500 0.4330 0.0000 (  5093 PWs)   bands (ev):

   -69.1368 -42.9414 -42.9347 -42.7620 -18.6906 -16.5186 -11.2108  -9.4063
    -8.4339  -7.6545  -6.8116  -6.1066  -4.6902  -3.8298  -3.3280  -2.7655
    -2.1225

     the Fermi energy is    -3.9533 ev

!    total energy              =    -188.50956881 Ry
     estimated scf accuracy    <       0.00000002 Ry
     smearing contrib. (-TS)   =      -0.00046100 Ry
     internal energy E=F+TS    =    -188.50910780 Ry

     The total energy is F=E-TS. E is the sum of the following terms:
     one-electron contribution =   -1265.91018549 Ry
     hartree contribution      =     629.60943917 Ry
     xc contribution           =     -32.38470738 Ry
     ewald contribution        =     480.17634589 Ry

     convergence has been achieved in   7 iterations

     negative rho (up, down):  1.606E-03 0.000E+00

     Forces acting on atoms (cartesian axes, Ry/au):

     atom    1 type  4   force =     0.00000000   -0.00000000   -0.00098926
     atom    2 type  2   force =     0.00000000   -0.00000000    0.00334122
     atom    3 type  3   force =     0.00000000   -0.00000000   -0.00421752
     atom    4 type  1   force =     0.00000000   -0.00000000    0.00186557

     Total force =     0.005780     Total SCF correction =     0.000910
     SCF correction compared to forces is large: reduce conv_thr to get better values


     Computing stress (Cartesian axis) and pressure


     negative rho (up, down):  1.606E-03 0.000E+00
          total   stress  (Ry/bohr**3)                   (kbar)     P=      -70.78
[...]
    -7.9939  -7.8163  -6.2460  -6.1702  -4.6342  -3.6512  -3.6429  -2.6014
    -1.9999

          k = 0.2500 0.4330 0.0000 (  5093 PWs)   bands (ev):

   -69.1384 -42.9422 -42.9356 -42.7631 -18.6777 -16.5078 -11.2043  -9.3946
    -8.4249  -7.6445  -6.8021  -6.1104  -4.6854  -3.8245  -3.3307  -2.7702
    -2.1316

     the Fermi energy is    -3.9544 ev

!    total energy              =    -188.50962975 Ry
     estimated scf accuracy    <          5.6E-09 Ry
     smearing contrib. (-TS)   =      -0.00039575 Ry
     internal energy E=F+TS    =    -188.50923400 Ry

     The total energy is F=E-TS. E is the sum of the following terms:
     one-electron contribution =   -1264.75495119 Ry
     hartree contribution      =     629.03473871 Ry
     xc contribution           =     -32.37934242 Ry
     ewald contribution        =     479.59032091 Ry

     convergence has been achieved in  12 iterations

     negative rho (up, down):  1.607E-03 0.000E+00

     Forces acting on atoms (cartesian axes, Ry/au):

     atom    1 type  4   force =     0.00000000   -0.00000000   -0.00159188
     atom    2 type  2   force =     0.00000000   -0.00000000    0.00253872
     atom    3 type  3   force =     0.00000000   -0.00000000   -0.00158557
     atom    4 type  1   force =     0.00000000   -0.00000000    0.00063873

     Total force =     0.003450     Total SCF correction =     0.000303


     Computing stress (Cartesian axis) and pressure


     negative rho (up, down):  1.607E-03 0.000E+00
          total   stress  (Ry/bohr**3)                   (kbar)     P=      -71.51
  -0.00058120   0.00000000   0.00000000          -85.50        0.00        0.00
   0.00000000  -0.00058120   0.00000000            0.00      -85.50        0.00
   0.00000000  -0.00000000  -0.00029586            0.00       -0.00      -43.52

     Energy error            =      6.1E-05 Ry
     Gradient error          =      2.5E-03 Ry/Bohr

     number of scf cycles    =   8
     number of bfgs steps    =   7

     energy             old  =    -188.5095688066 Ry
     energy             new  =    -188.5096297513 Ry

     CASE: energy            _new < energy            _old

     new trust radius        =       0.0103067275 bohr
     new conv_thr            =       0.0000000100 Ry


ATOMIC_POSITIONS (angstrom)
V                0.0000000000       -0.0000000000        0.0237442450
S                1.8604463800        1.0741292200        1.2779027447
Se               1.8604463800        1.0741292200       -1.4905870051
H                1.8604463800        1.0741292200        2.6600095010



     Writing config-only to output data dir ./tmp/candidate_04_VSSe_H_relaxed.save/ :
     XML data file
     NEW-OLD atomic charge density approx. for the potential

     Check: negative core charge=   -0.000002

     negative rho (up, down):  1.603E-03 0.000E+00

     total cpu time spent up to now is     3121.2 secs

     per-process dynamical memory:   155.1 Mb

     Self-consistent Calculation

     iteration #  1     ecut=    35.00 Ry     beta= 0.10
     Davidson diagonalization with overlap
     ethr =  1.00E-06,  avg # of iterations =  5.0

     Threshold (ethr) on eigenvalues was too large:
     Diagonalizing with lowered threshold

     Davidson diagonalization with overlap
     ethr =  7.46E-08,  avg # of iterations =  1.8

     negative rho (up, down):  1.603E-03 0.000E+00

     total cpu time spent up to now is     3141.4 secs

     total energy              =    -188.50965414 Ry
     estimated scf accuracy    <       0.00002145 Ry

     iteration #  2     ecut=    35.00 Ry     beta= 0.10
     Davidson diagonalization with overlap
     ethr =  8.25E-08,  avg # of iterations =  1.0

     negative rho (up, down):  1.611E-03 0.000E+00

     total cpu time spent up to now is     3147.1 secs

     total energy              =    -188.50965162 Ry
     estimated scf accuracy    <       0.00001533 Ry

     iteration #  3     ecut=    35.00 Ry     beta= 0.10
     Davidson diagonalization with overlap
     ethr =  5.90E-08,  avg # of iterations =  1.8

     negative rho (up, down):  1.608E-03 0.000E+00

     total cpu time spent up to now is     3154.0 secs

     total energy              =    -188.50965274 Ry
     estimated scf accuracy    <       0.00000264 Ry

     iteration #  4     ecut=    35.00 Ry     beta= 0.10
     Davidson diagonalization with overlap
     ethr =  1.02E-08,  avg # of iterations =  1.2

     negative rho (up, down):  1.645E-03 0.000E+00

     total cpu time spent up to now is     3160.4 secs

     total energy              =    -188.50964967 Ry
     estimated scf accuracy    <       0.00000207 Ry

     iteration #  5     ecut=    35.00 Ry     beta= 0.10
     Davidson diagonalization with overlap
     ethr =  7.96E-09,  avg # of iterations =  2.0

     negative rho (up, down):  1.634E-03 0.000E+00

     total cpu time spent up to now is     3167.5 secs

     total energy              =    -188.50965056 Ry
     estimated scf accuracy    <       0.00000035 Ry

     iteration #  6     ecut=    35.00 Ry     beta= 0.10
     Davidson diagonalization with overlap
     ethr =  1.35E-09,  avg # of iterations =  2.0

     negative rho (up, down):  1.609E-03 0.000E+00

     total cpu time spent up to now is     3174.5 secs

     total energy              =    -188.50965184 Ry
     estimated scf accuracy    <       0.00000033 Ry

     iteration #  7     ecut=    35.00 Ry     beta= 0.10
     Davidson diagonalization with overlap
     ethr =  1.28E-09,  avg # of iterations =  2.0

     negative rho (up, down):  1.601E-03 0.000E+00

     total cpu time spent up to now is     3181.1 secs

     total energy              =    -188.50965219 Ry
     estimated scf accuracy    <       0.00000010 Ry

     iteration #  8     ecut=    35.00 Ry     beta= 0.10
     Davidson diagonalization with overlap
     ethr =  3.71E-10,  avg # of iterations =  4.0

     negative rho (up, down):  1.600E-03 0.000E+00

     total cpu time spent up to now is     3191.6 secs

     total energy              =    -188.50965233 Ry
     estimated scf accuracy    <       0.00000005 Ry

     iteration #  9     ecut=    35.00 Ry     beta= 0.10
     Davidson diagonalization with overlap
     ethr =  1.78E-10,  avg # of iterations =  1.0

     negative rho (up, down):  1.597E-03 0.000E+00

     total cpu time spent up to now is     3197.0 secs

     total energy              =    -188.50965254 Ry
     estimated scf accuracy    <       0.00000003 Ry

     iteration # 10     ecut=    35.00 Ry     beta= 0.10
     Davidson diagonalization with overlap
     ethr =  1.19E-10,  avg # of iterations =  1.2

     negative rho (up, down):  1.594E-03 0.000E+00

     total cpu time spent up to now is     3204.0 secs

     total energy              =    -188.50965271 Ry
     estimated scf accuracy    <       0.00000003 Ry

     iteration # 11     ecut=    35.00 Ry     beta= 0.10
     Davidson diagonalization with overlap
     ethr =  1.19E-10,  avg # of iterations =  2.0

     negative rho (up, down):  1.594E-03 0.000E+00

     total cpu time spent up to now is     3210.3 secs

     total energy              =    -188.50965279 Ry
     estimated scf accuracy    <       0.00000003 Ry

     iteration # 12     ecut=    35.00 Ry     beta= 0.10
     Davidson diagonalization with overlap
     ethr =  9.93E-11,  avg # of iterations =  1.0

     negative rho (up, down):  1.593E-03 0.000E+00

     total cpu time spent up to now is     3217.3 secs

     total energy              =    -188.50965289 Ry
     estimated scf accuracy    <       0.00000001 Ry

     iteration # 13     ecut=    35.00 Ry     beta= 0.10
     Davidson diagonalization with overlap
     ethr =  5.70E-11,  avg # of iterations =  1.0

     negative rho (up, down):  1.602E-03 0.000E+00

     total cpu time spent up to now is     3223.6 secs

     End of self-consistent calculation

          k = 0.0000 0.0000 0.0000 (  5141 PWs)   bands (ev):

   -69.1398 -42.9299 -42.9299 -42.7677 -19.2106 -17.0933 -11.6665  -7.7509
    -7.7509  -6.5621  -5.7592  -5.7592  -4.0306  -3.0090  -3.0090  -2.5013
    -2.5013

          k = 0.0000 0.2887 0.0000 (  5091 PWs)   bands (ev):

   -69.1389 -42.9325 -42.9287 -42.7649 -18.9464 -16.8183 -11.4346  -8.8719
    -7.7391  -6.9952  -6.2356  -6.0987  -4.4310  -3.3146  -3.2295  -3.0095
    -2.3433

          k = 0.0000-0.5774 0.0000 (  5066 PWs)   bands (ev):

   -69.1381 -42.9395 -42.9266 -42.7634 -18.6605 -16.4931 -11.1992  -9.8040
    -7.9875  -7.8028  -6.2296  -6.1720  -4.6306  -3.6433  -3.6394  -2.6068
    -2.0067

          k = 0.2500 0.4330 0.0000 (  5093 PWs)   bands (ev):

   -69.1382 -42.9409 -42.9344 -42.7628 -18.6644 -16.4970 -11.1985  -9.3799
    -8.4121  -7.6344  -6.7921  -6.1120  -4.6784  -3.8170  -3.3317  -2.7721
    -2.1393

     the Fermi energy is    -3.9523 ev

!    total energy              =    -188.50965342 Ry
     estimated scf accuracy    <          7.8E-09 Ry
     smearing contrib. (-TS)   =      -0.00034418 Ry
     internal energy E=F+TS    =    -188.50930924 Ry

     The total energy is F=E-TS. E is the sum of the following terms:
     one-electron contribution =   -1263.62664685 Ry
     hartree contribution      =     628.47400048 Ry
     xc contribution           =     -32.37471803 Ry
     ewald contribution        =     479.01805516 Ry

     convergence has been achieved in  13 iterations

     negative rho (up, down):  1.602E-03 0.000E+00

     Forces acting on atoms (cartesian axes, Ry/au):

     atom    1 type  4   force =     0.00000000   -0.00000000   -0.00141196
     atom    2 type  2   force =     0.00000000    0.00000000    0.00069648
     atom    3 type  3   force =     0.00000000    0.00000000    0.00054633
     atom    4 type  1   force =     0.00000000   -0.00000000    0.00016915

     Total force =     0.001675     Total SCF correction =     0.000351
     SCF correction compared to forces is large: reduce conv_thr to get better values


     Computing stress (Cartesian axis) and pressure


     negative rho (up, down):  1.602E-03 0.000E+00
          total   stress  (Ry/bohr**3)                   (kbar)     P=      -72.10
  -0.00058287   0.00000000   0.00000000          -85.74        0.00        0.00
   0.00000000  -0.00058287   0.00000000            0.00      -85.74        0.00
   0.00000000   0.00000000  -0.00030466            0.00        0.00      -44.82

     Energy error            =      2.4E-05 Ry
     Gradient error          =      1.4E-03 Ry/Bohr

     number of scf cycles    =   9
     number of bfgs steps    =   8

     energy             old  =    -188.5096297513 Ry
     energy             new  =    -188.5096534229 Ry

     CASE: energy            _new < energy            _old

     new trust radius        =       0.0017607514 bohr
     new conv_thr            =       0.0000000100 Ry


ATOMIC_POSITIONS (angstrom)
V                0.0000000000       -0.0000000000        0.0228124955
S                1.8604463800        1.0741292200        1.2785940146
Se               1.8604463800        1.0741292200       -1.4909064795
H                1.8604463800        1.0741292200        2.6605694551



     Writing config-only to output data dir ./tmp/candidate_04_VSSe_H_relaxed.save/ :
     XML data file
     NEW-OLD atomic charge density approx. for the potential

     Check: negative core charge=   -0.000002

     negative rho (up, down):  1.601E-03 0.000E+00

     total cpu time spent up to now is     3239.6 secs

     per-process dynamical memory:   155.1 Mb

     Self-consistent Calculation

     iteration #  1     ecut=    35.00 Ry     beta= 0.10
     Davidson diagonalization with overlap
     ethr =  1.00E-06,  avg # of iterations =  3.0

     Threshold (ethr) on eigenvalues was too large:
     Diagonalizing with lowered threshold

     Davidson diagonalization with overlap
     ethr =  3.44E-09,  avg # of iterations =  6.0

     negative rho (up, down):  1.601E-03 0.000E+00

     total cpu time spent up to now is     3257.7 secs

     total energy              =    -188.50965584 Ry
     estimated scf accuracy    <       0.00000141 Ry

     iteration #  2     ecut=    35.00 Ry     beta= 0.10
     Davidson diagonalization with overlap
     ethr =  5.43E-09,  avg # of iterations =  1.0

     negative rho (up, down):  1.608E-03 0.000E+00

     total cpu time spent up to now is     3264.0 secs

     total energy              =    -188.50965542 Ry
     estimated scf accuracy    <       0.00000110 Ry

     iteration #  3     ecut=    35.00 Ry     beta= 0.10
     Davidson diagonalization with overlap
     ethr =  4.21E-09,  avg # of iterations =  1.2

     negative rho (up, down):  1.607E-03 0.000E+00

     total cpu time spent up to now is     3269.9 secs

     total energy              =    -188.50965547 Ry
     estimated scf accuracy    <       0.00000026 Ry

     iteration #  4     ecut=    35.00 Ry     beta= 0.10
     Davidson diagonalization with overlap
     ethr =  9.94E-10,  avg # of iterations =  1.2

     negative rho (up, down):  1.620E-03 0.000E+00

     total cpu time spent up to now is     3275.7 secs

     total energy              =    -188.50965476 Ry
     estimated scf accuracy    <       0.00000017 Ry

     iteration #  5     ecut=    35.00 Ry     beta= 0.10
     Davidson diagonalization with overlap
     ethr =  6.55E-10,  avg # of iterations =  2.0

     negative rho (up, down):  1.613E-03 0.000E+00

     total cpu time spent up to now is     3286.1 secs

     total energy              =    -188.50965511 Ry
     estimated scf accuracy    <       0.00000004 Ry

     iteration #  6     ecut=    35.00 Ry     beta= 0.10
     Davidson diagonalization with overlap
     ethr =  1.48E-10,  avg # of iterations =  2.8

     negative rho (up, down):  1.607E-03 0.000E+00

     total cpu time spent up to now is     3295.2 secs

     total energy              =    -188.50965544 Ry
     estimated scf accuracy    <       0.00000005 Ry

     iteration #  7     ecut=    35.00 Ry     beta= 0.10
     Davidson diagonalization with overlap
     ethr =  1.48E-10,  avg # of iterations =  2.0

     negative rho (up, down):  1.597E-03 0.000E+00

     total cpu time spent up to now is     3301.3 secs

     End of self-consistent calculation

          k = 0.0000 0.0000 0.0000 (  5141 PWs)   bands (ev):

   -69.1389 -42.9287 -42.9287 -42.7670 -19.2070 -17.0922 -11.6643  -7.7449
    -7.7449  -6.5632  -5.7588  -5.7588  -4.0282  -3.0104  -3.0104  -2.4987
    -2.4987

          k = 0.0000 0.2887 0.0000 (  5091 PWs)   bands (ev):

   -69.1380 -42.9313 -42.9276 -42.7641 -18.9429 -16.8170 -11.4325  -8.8672
    -7.7335  -6.9943  -6.2360  -6.0981  -4.4289  -3.3148  -3.2291  -3.0073
    -2.3421

          k = 0.0000-0.5774 0.0000 (  5066 PWs)   bands (ev):

   -69.1372 -42.9383 -42.9254 -42.7626 -18.6571 -16.4916 -11.1972  -9.8002
    -7.9864  -7.7980  -6.2286  -6.1715  -4.6283  -3.6411  -3.6378  -2.6075
    -2.0063

          k = 0.2500 0.4330 0.0000 (  5093 PWs)   bands (ev):

   -69.1372 -42.9398 -42.9333 -42.7621 -18.6610 -16.4955 -11.1966  -9.3758
    -8.4079  -7.6333  -6.7909  -6.1111  -4.6763  -3.8149  -3.3312  -2.7710
    -2.1395

     the Fermi energy is    -3.9500 ev

!    total energy              =    -188.50965595 Ry
     estimated scf accuracy    <          8.8E-09 Ry
     smearing contrib. (-TS)   =      -0.00034550 Ry
     internal energy E=F+TS    =    -188.50931045 Ry

     The total energy is F=E-TS. E is the sum of the following terms:
     one-electron contribution =   -1263.49663834 Ry
     hartree contribution      =     628.41036130 Ry
     xc contribution           =     -32.37441458 Ry
     ewald contribution        =     478.95138117 Ry

     convergence has been achieved in   7 iterations

     negative rho (up, down):  1.597E-03 0.000E+00

     Forces acting on atoms (cartesian axes, Ry/au):

     atom    1 type  4   force =     0.00000000    0.00000000   -0.00089811
     atom    2 type  2   force =     0.00000000    0.00000000    0.00015732
     atom    3 type  3   force =     0.00000000    0.00000000    0.00051251
     atom    4 type  1   force =     0.00000000   -0.00000000    0.00022827

     Total force =     0.001071     Total SCF correction =     0.000225
     SCF correction compared to forces is large: reduce conv_thr to get better values


     Computing stress (Cartesian axis) and pressure


     negative rho (up, down):  1.597E-03 0.000E+00
          total   stress  (Ry/bohr**3)                   (kbar)     P=      -72.09
  -0.00058262  -0.00000000   0.00000000          -85.71       -0.00        0.00
  -0.00000000  -0.00058262   0.00000000           -0.00      -85.71        0.00
   0.00000000   0.00000000  -0.00030490            0.00        0.00      -44.85

     Energy error            =      2.5E-06 Ry
     Gradient error          =      9.0E-04 Ry/Bohr

     bfgs converged in  10 scf cycles and   9 bfgs steps
     (criteria: energy <  1.0E-04 Ry, force <  1.0E-03 Ry/Bohr)

     End of BFGS Geometry Optimization

     Final energy             =    -188.5096559524 Ry

     File ./tmp/candidate_04_VSSe_H_relaxed.bfgs deleted, as requested
Begin final coordinates

ATOMIC_POSITIONS (angstrom)
V                0.0000000000       -0.0000000000        0.0228124955
S                1.8604463800        1.0741292200        1.2785940146
Se               1.8604463800        1.0741292200       -1.4909064795
H                1.8604463800        1.0741292200        2.6605694551
End final coordinates



     Writing all to output data dir ./tmp/candidate_04_VSSe_H_relaxed.save/ :
     XML data file, charge density, pseudopotentials, collected wavefunctions

     init_run     :   1084.01s CPU     70.64s WALL (       1 calls)
     electrons    :  43453.25s CPU   3079.06s WALL (      10 calls)
     update_pot   :     29.02s CPU      1.90s WALL (       9 calls)
     forces       :    114.15s CPU     19.39s WALL (      10 calls)
     stress       :    355.30s CPU    130.48s WALL (      10 calls)

     Called by init_run:
     wfcinit      :    531.37s CPU     33.19s WALL (       1 calls)
     potinit      :    300.33s CPU     19.34s WALL (       1 calls)
     hinit0       :    249.09s CPU     16.32s WALL (       1 calls)

     Called by electrons:
     c_bands      :  32867.08s CPU   2057.97s WALL (     162 calls)
     sum_band     :   7091.10s CPU    596.88s WALL (     162 calls)
     v_of_rho     :    313.32s CPU     19.80s WALL (     167 calls)
     newd         :    505.02s CPU    248.28s WALL (     167 calls)
     mix_rho      :   2692.99s CPU    170.41s WALL (     162 calls)

     Called by c_bands:
     init_us_2    :     48.42s CPU      4.81s WALL (    1380 calls)
     cegterg      :  32755.08s CPU   2049.68s WALL (     648 calls)

     Called by *egterg:
     cdiaghg      :     87.50s CPU      5.43s WALL (    2092 calls)
     h_psi        :  30530.91s CPU   1910.64s WALL (    2152 calls)
     s_psi        :    390.83s CPU     24.22s WALL (    2152 calls)
     g_psi        :      4.40s CPU      0.64s WALL (    1500 calls)

     Called by h_psi:
     h_psi:calbec :    138.98s CPU      7.56s WALL (    2152 calls)
     vloc_psi     :  29528.63s CPU   1851.07s WALL (    2152 calls)
                                        0.00s GPU  (    2152 calls)
     add_vuspsi   :    390.06s CPU     23.10s WALL (    2152 calls)

     General routines
     calbec       :    185.25s CPU     10.42s WALL (    3480 calls)
     fft          :    421.73s CPU     26.65s WALL (    2415 calls)
     ffts         :    969.59s CPU     61.65s WALL (   18342 calls)
     fftw         :  34252.00s CPU   2147.82s WALL (   62260 calls)
     interpolate  :    320.81s CPU     20.46s WALL (     167 calls)

     Parallel routines

     PWSCF        :     12h31m CPU  55m15.95s WALL


   This run was terminated on:   1:12: 1  11May2026            

=------------------------------------------------------------------------------=
   JOB DONE.
=------------------------------------------------------------------------------=
