
     Program PWSCF v.7.5 starts on 10May2026 at 18:59:12 

     This program is part of the open-source Quantum ESPRESSO suite
     for quantum simulation of materials; please cite
         "P. Giannozzi et al., J. Phys.:Condens. Matter 21 395502 (2009);
         "P. Giannozzi et al., J. Phys.:Condens. Matter 29 465901 (2017);
         "P. Giannozzi et al., J. Chem. Phys. 152 154105 (2020);
          URL http://www.quantum-espresso.org", 
     in publications or presentations arising from this work. More details at
     http://www.quantum-espresso.org/quote

     Parallel version (MPI & OpenMP), running on      16 processor cores
     Number of MPI processes:                 1
     Threads/MPI process:                    16

     MPI processes distributed on     1 nodes
     7003 MiB available memory on the printing compute node when the environment starts

     Reading input from /root/qe_work_expanded/candidate_03_VNSe/01_relax.in
Warning: card &CELL ignored
Warning: card   CELL_DOFREE = '2DXY', ignored

     Current dimensions of program PWSCF are:
     Max number of different atomic species (ntypx) = 10
     Max number of k-points (npk) =  40000
     Max angular momentum in pseudopotentials (lmaxx) =  4
     file V.pbe-spnl-rrkjus_psl.1.0.0.UPF: wavefunction(s)  3P 3D renormalized
     Message from routine setup:
     using ibrav=0 with symmetry is DISCOURAGED, use correct ibrav instead

     Subspace diagonalization in iterative solution of the eigenvalue problem:
     a serial algorithm will be used


     G-vector sticks info
     --------------------
     sticks:   dense  smooth     PW     G-vecs:    dense   smooth      PW
     Sum        1027     511    151               123295    43587    6999

     Using Slab Decomposition



     bravais-lattice index     =            0
     lattice parameter (alat)  =       7.2653  a.u.
     unit-cell volume          =    1554.9353 (a.u.)^3
     number of atoms/cell      =            3
     number of atomic types    =            3
     number of electrons       =        24.00
     number of Kohn-Sham states=           16
     kinetic-energy cutoff     =      35.0000  Ry
     charge density cutoff     =     280.0000  Ry
     scf convergence threshold =      1.0E-07
     mixing beta               =       0.3500
     number of iterations used =            8  plain     mixing
     energy convergence thresh.=      1.0E-04
     force convergence thresh. =      1.0E-03
     Exchange-correlation= PBE
                           (   1   4   3   4   0   0   0)
     nstep                     =           50


     celldm(1)=   7.265327  celldm(2)=   0.000000  celldm(3)=   0.000000
     celldm(4)=   0.000000  celldm(5)=   0.000000  celldm(6)=   0.000000

     crystal axes: (cart. coord. in units of alat)
               a(1) = (   1.000000   0.000000   0.000000 )  
               a(2) = (  -0.500000   0.866025   0.000000 )  
               a(3) = (   0.000000   0.000000   4.681836 )  

     reciprocal axes: (cart. coord. in units 2 pi/alat)
               b(1) = (  1.000000  0.577350 -0.000000 )  
               b(2) = (  0.000000  1.154701  0.000000 )  
               b(3) = (  0.000000 -0.000000  0.213591 )  


     PseudoPot. # 1 for N  read from file:
     ./pseudos/N.pbe-n-rrkjus_psl.1.0.0.UPF
     MD5 check sum: ada94e3ed05223de5319d0572dc76806
     Pseudo is Ultrasoft + core correction, Zval =  5.0
     Generated using &quot;atomic&quot; code by A. Dal Corso  v.6.3MaX
     Using radial grid of 1085 points,  4 beta functions with: 
                l(1) =   0
                l(2) =   0
                l(3) =   1
                l(4) =   1
     Q(r) pseudized with 0 coefficients 


     PseudoPot. # 2 for Se read from file:
     ./pseudos/Se.pbe-n-rrkjus_psl.1.0.0.UPF
     MD5 check sum: 8e2a6847b5cb9faee9497ebb573e71ea
     Pseudo is Ultrasoft + core correction, Zval =  6.0
     Generated using &quot;atomic&quot; code by A. Dal Corso  v.6.3
     Using radial grid of 1211 points,  4 beta functions with: 
                l(1) =   0
                l(2) =   0
                l(3) =   1
                l(4) =   1
     Q(r) pseudized with 0 coefficients 


     PseudoPot. # 3 for V  read from file:
     ./pseudos/V.pbe-spnl-rrkjus_psl.1.0.0.UPF
     MD5 check sum: 79b3eb63147daf0b665d9f1bcc691206
     Pseudo is Ultrasoft + core correction, Zval = 13.0
     Generated using &quot;atomic&quot; code by A. Dal Corso  v.6.2.2
     Using radial grid of 1181 points,  6 beta functions with: 
                l(1) =   0
                l(2) =   0
                l(3) =   1
                l(4) =   1
                l(5) =   2
                l(6) =   2
     Q(r) pseudized with 0 coefficients 


     atomic species   valence    mass     pseudopotential
     N                 5.00    14.00700     N ( 1.00)
     Se                6.00    78.97100     Se( 1.00)
     V                13.00    50.94200     V ( 1.00)

      6 Sym. Ops. (no inversion) found



   Cartesian axes

     site n.     atom                  positions (alat units)
         1        V      tau(   1) = (   0.0000000   0.0000000   0.0000000  )
         2        Se     tau(   2) = (   0.5000000   0.2886751   0.3780226  )
         3        N      tau(   3) = (   0.5000000   0.2886751  -0.3780226  )

     number of k points=     4  Methfessel-Paxton smearing, width (Ry)=  0.0200
                       cart. coord. in units 2pi/alat
        k(    1) = (   0.0000000   0.0000000   0.0000000), wk =   0.1250000
        k(    2) = (   0.0000000   0.2886751   0.0000000), wk =   0.7500000
        k(    3) = (   0.0000000  -0.5773503   0.0000000), wk =   0.3750000
        k(    4) = (   0.2500000   0.4330127   0.0000000), wk =   0.7500000

     Dense  grid:   123295 G-vectors     FFT dimensions: (  40,  40, 192)

     Smooth grid:    43587 G-vectors     FFT dimensions: (  27,  27, 135)

     Estimated max dynamical RAM per process >     470.91 MB
 ----2D----2D----2D----2D----2D----2D----2D----2D----2D----2D----2D----2D
  The code is running with the 2D cutoff
  Please refer to:
  Sohier, T., Calandra, M., & Mauri, F. (2017), 
  Density functional perturbation theory for gated two-dimensional heterostructures:
  Theoretical developments and application to flexural phonons in graphene.
  Physical Review B, 96(7), 75448. https://doi.org/10.1103/PhysRevB.96.075448
 ----2D----2D----2D----2D----2D----2D----2D----2D----2D----2D----2D----2D

     Check: negative core charge=   -0.000005

     Initial potential from superposition of free atoms

     starting charge      23.9990, renormalised to      24.0000

     negative rho (up, down):  2.603E-03 0.000E+00
     Starting wfcs are   18 randomized atomic wfcs

     total cpu time spent up to now is        8.0 secs

     per-process dynamical memory:    97.3 Mb

     Self-consistent Calculation

     iteration #  1     ecut=    35.00 Ry     beta= 0.35
     Davidson diagonalization with overlap
     ethr =  1.00E-02,  avg # of iterations =  1.8

     negative rho (up, down):  1.954E-03 0.000E+00

     total cpu time spent up to now is       13.6 secs

     total energy              =    -184.71690296 Ry
     estimated scf accuracy    <       3.39735904 Ry

     iteration #  2     ecut=    35.00 Ry     beta= 0.35
     Davidson diagonalization with overlap
     ethr =  1.00E-02,  avg # of iterations =  5.5

     negative rho (up, down):  5.559E-03 0.000E+00

     total cpu time spent up to now is       23.2 secs

     total energy              =    -185.30246342 Ry
     estimated scf accuracy    <      34.95833214 Ry

     iteration #  3     ecut=    35.00 Ry     beta= 0.35
     Davidson diagonalization with overlap
     ethr =  1.00E-02,  avg # of iterations =  2.2

     negative rho (up, down):  1.059E-02 0.000E+00

     total cpu time spent up to now is       30.5 secs

     total energy              =    -186.17733419 Ry
     estimated scf accuracy    <       8.90852558 Ry

     iteration #  4     ecut=    35.00 Ry     beta= 0.35
     Davidson diagonalization with overlap
     ethr =  1.00E-02,  avg # of iterations =  2.2

     negative rho (up, down):  1.069E-02 0.000E+00

     total cpu time spent up to now is       36.9 secs

     total energy              =    -186.24556465 Ry
     estimated scf accuracy    <       2.83150133 Ry

     iteration #  5     ecut=    35.00 Ry     beta= 0.35
     Davidson diagonalization with overlap
     ethr =  1.00E-02,  avg # of iterations =  1.2

     negative rho (up, down):  9.436E-03 0.000E+00

     total cpu time spent up to now is       42.0 secs

     total energy              =    -186.24473767 Ry
     estimated scf accuracy    <       1.26018144 Ry

     iteration #  6     ecut=    35.00 Ry     beta= 0.35
     Davidson diagonalization with overlap
     ethr =  5.25E-03,  avg # of iterations =  5.2

     negative rho (up, down):  4.687E-03 0.000E+00

     total cpu time spent up to now is       51.0 secs

     total energy              =    -186.40227408 Ry
     estimated scf accuracy    <       1.07986572 Ry

     iteration #  7     ecut=    35.00 Ry     beta= 0.35
     Davidson diagonalization with overlap
     ethr =  4.50E-03,  avg # of iterations =  1.2

     negative rho (up, down):  4.216E-03 0.000E+00

     total cpu time spent up to now is       55.7 secs

     total energy              =    -186.44647534 Ry
     estimated scf accuracy    <       0.01911917 Ry

     iteration #  8     ecut=    35.00 Ry     beta= 0.35
     Davidson diagonalization with overlap
     ethr =  7.97E-05,  avg # of iterations =  6.2

     negative rho (up, down):  5.917E-03 0.000E+00

     total cpu time spent up to now is       66.8 secs

     total energy              =    -186.41481624 Ry
     estimated scf accuracy    <       0.50740091 Ry

     iteration #  9     ecut=    35.00 Ry     beta= 0.35
     Davidson diagonalization with overlap
     ethr =  7.97E-05,  avg # of iterations =  5.0

     negative rho (up, down):  4.235E-03 0.000E+00

     total cpu time spent up to now is       76.9 secs

     total energy              =    -186.44751926 Ry
     estimated scf accuracy    <       0.34354771 Ry

     iteration # 10     ecut=    35.00 Ry     beta= 0.35
     Davidson diagonalization with overlap
     ethr =  7.97E-05,  avg # of iterations =  1.0

     negative rho (up, down):  3.561E-03 0.000E+00

     total cpu time spent up to now is       85.5 secs

     total energy              =    -186.44507987 Ry
     estimated scf accuracy    <       0.08046597 Ry

     iteration # 11     ecut=    35.00 Ry     beta= 0.35
     Davidson diagonalization with overlap
     ethr =  7.97E-05,  avg # of iterations =  2.2

     negative rho (up, down):  3.769E-03 0.000E+00

     total cpu time spent up to now is       96.3 secs

     total energy              =    -186.44811834 Ry
     estimated scf accuracy    <       0.00260766 Ry

     iteration # 12     ecut=    35.00 Ry     beta= 0.35
     Davidson diagonalization with overlap
     ethr =  1.09E-05,  avg # of iterations =  3.5

     negative rho (up, down):  3.808E-03 0.000E+00

     total cpu time spent up to now is      103.8 secs

     total energy              =    -186.44848641 Ry
     estimated scf accuracy    <       0.00154628 Ry

     iteration # 13     ecut=    35.00 Ry     beta= 0.35
     Davidson diagonalization with overlap
     ethr =  6.44E-06,  avg # of iterations =  1.0

     negative rho (up, down):  3.885E-03 0.000E+00

     total cpu time spent up to now is      108.7 secs

     total energy              =    -186.44852401 Ry
     estimated scf accuracy    <       0.00161362 Ry

     iteration # 14     ecut=    35.00 Ry     beta= 0.35
     Davidson diagonalization with overlap
     ethr =  6.44E-06,  avg # of iterations =  1.0

     negative rho (up, down):  3.927E-03 0.000E+00

     total cpu time spent up to now is      116.5 secs

     total energy              =    -186.44834435 Ry
     estimated scf accuracy    <       0.00326417 Ry

     iteration # 15     ecut=    35.00 Ry     beta= 0.35
     Davidson diagonalization with overlap
     ethr =  6.44E-06,  avg # of iterations =  1.0

     negative rho (up, down):  3.890E-03 0.000E+00

     total cpu time spent up to now is      120.7 secs

     total energy              =    -186.44845615 Ry
     estimated scf accuracy    <       0.00008005 Ry

     iteration # 16     ecut=    35.00 Ry     beta= 0.35
     Davidson diagonalization with overlap
     ethr =  3.34E-07,  avg # of iterations =  3.2

     negative rho (up, down):  3.903E-03 0.000E+00

     total cpu time spent up to now is      131.0 secs

     total energy              =    -186.44846517 Ry
     estimated scf accuracy    <       0.00003095 Ry

     iteration # 17     ecut=    35.00 Ry     beta= 0.35
     Davidson diagonalization with overlap
     ethr =  1.29E-07,  avg # of iterations =  1.0

     negative rho (up, down):  3.915E-03 0.000E+00

     total cpu time spent up to now is      141.0 secs

     total energy              =    -186.44846642 Ry
     estimated scf accuracy    <       0.00000360 Ry

     iteration # 18     ecut=    35.00 Ry     beta= 0.35
     Davidson diagonalization with overlap
     ethr =  1.50E-08,  avg # of iterations =  4.2

     negative rho (up, down):  3.954E-03 0.000E+00

     total cpu time spent up to now is      148.1 secs

     total energy              =    -186.44846855 Ry
     estimated scf accuracy    <       0.00000078 Ry

     iteration # 19     ecut=    35.00 Ry     beta= 0.35
     Davidson diagonalization with overlap
     ethr =  3.24E-09,  avg # of iterations =  4.0

     negative rho (up, down):  4.004E-03 0.000E+00

     total cpu time spent up to now is      155.3 secs

     total energy              =    -186.44846883 Ry
     estimated scf accuracy    <       0.00000039 Ry

     iteration # 20     ecut=    35.00 Ry     beta= 0.35
     Davidson diagonalization with overlap
     ethr =  1.64E-09,  avg # of iterations =  4.5

     negative rho (up, down):  4.063E-03 0.000E+00

     total cpu time spent up to now is      162.6 secs

     total energy              =    -186.44846988 Ry
     estimated scf accuracy    <       0.00000032 Ry

     iteration # 21     ecut=    35.00 Ry     beta= 0.35
     Davidson diagonalization with overlap
     ethr =  1.32E-09,  avg # of iterations =  5.5

     negative rho (up, down):  4.137E-03 0.000E+00

     total cpu time spent up to now is      170.2 secs

     total energy              =    -186.44847143 Ry
     estimated scf accuracy    <       0.00000037 Ry

     iteration # 22     ecut=    35.00 Ry     beta= 0.35
     Davidson diagonalization with overlap
     ethr =  1.32E-09,  avg # of iterations =  5.5

     negative rho (up, down):  4.234E-03 0.000E+00

     total cpu time spent up to now is      177.7 secs

     total energy              =    -186.44847376 Ry
     estimated scf accuracy    <       0.00000061 Ry

     iteration # 23     ecut=    35.00 Ry     beta= 0.35
     Davidson diagonalization with overlap
     ethr =  1.32E-09,  avg # of iterations =  6.5

     negative rho (up, down):  4.388E-03 0.000E+00

     total cpu time spent up to now is      189.2 secs

     total energy              =    -186.44847458 Ry
     estimated scf accuracy    <       0.00000054 Ry

     iteration # 24     ecut=    35.00 Ry     beta= 0.35
     Davidson diagonalization with overlap
     ethr =  1.32E-09,  avg # of iterations =  6.8

     negative rho (up, down):  4.594E-03 0.000E+00

     total cpu time spent up to now is      199.7 secs

     total energy              =    -186.44847643 Ry
     estimated scf accuracy    <       0.00000020 Ry

     iteration # 25     ecut=    35.00 Ry     beta= 0.35
     Davidson diagonalization with overlap
     ethr =  8.39E-10,  avg # of iterations =  7.5

     negative rho (up, down):  4.940E-03 0.000E+00

     total cpu time spent up to now is      210.3 secs

     total energy              =    -186.44846979 Ry
     estimated scf accuracy    <       0.00000029 Ry

     iteration # 26     ecut=    35.00 Ry     beta= 0.35
     Davidson diagonalization with overlap
     ethr =  8.39E-10,  avg # of iterations =  7.8

     negative rho (up, down):  5.145E-03 0.000E+00

     total cpu time spent up to now is      221.3 secs

     total energy              =    -186.44849464 Ry
     estimated scf accuracy    <       0.00000070 Ry

     iteration # 27     ecut=    35.00 Ry     beta= 0.35
     Davidson diagonalization with overlap
     ethr =  8.39E-10,  avg # of iterations =  8.2

     negative rho (up, down):  5.469E-03 0.000E+00

     total cpu time spent up to now is      232.0 secs

     total energy              =    -186.44852462 Ry
     estimated scf accuracy    <       0.00000503 Ry

     iteration # 28     ecut=    35.00 Ry     beta= 0.35
     Davidson diagonalization with overlap
     ethr =  8.39E-10,  avg # of iterations =  8.0

     negative rho (up, down):  5.967E-03 0.000E+00

     total cpu time spent up to now is      247.8 secs

     total energy              =    -186.44856025 Ry
     estimated scf accuracy    <       0.00002311 Ry

     iteration # 29     ecut=    35.00 Ry     beta= 0.35
     Davidson diagonalization with overlap
     ethr =  8.39E-10,  avg # of iterations =  8.5

     negative rho (up, down):  7.161E-03 0.000E+00

     total cpu time spent up to now is      259.2 secs

     total energy              =    -186.44852951 Ry
     estimated scf accuracy    <       0.00005161 Ry

     iteration # 30     ecut=    35.00 Ry     beta= 0.35
     Davidson diagonalization with overlap
     ethr =  8.39E-10,  avg # of iterations =  9.5

     negative rho (up, down):  8.263E-03 0.000E+00

     total cpu time spent up to now is      273.6 secs

     total energy              =    -186.44855077 Ry
     estimated scf accuracy    <       0.00037946 Ry

     iteration # 31     ecut=    35.00 Ry     beta= 0.35
     Davidson diagonalization with overlap
     ethr =  8.39E-10,  avg # of iterations =  9.0

     negative rho (up, down):  9.372E-03 0.000E+00

     total cpu time spent up to now is      284.9 secs

     total energy              =    -186.44863336 Ry
     estimated scf accuracy    <       0.00064480 Ry

     iteration # 32     ecut=    35.00 Ry     beta= 0.35
     Davidson diagonalization with overlap
     ethr =  8.39E-10,  avg # of iterations =  9.2

     negative rho (up, down):  1.100E-02 0.000E+00

     total cpu time spent up to now is      300.5 secs

     total energy              =    -186.44870716 Ry
     estimated scf accuracy    <       0.00098701 Ry

     iteration # 33     ecut=    35.00 Ry     beta= 0.35
     Davidson diagonalization with overlap
     ethr =  8.39E-10,  avg # of iterations =  9.5

     negative rho (up, down):  1.352E-02 0.000E+00

     total cpu time spent up to now is      314.3 secs

     total energy              =    -186.44868807 Ry
     estimated scf accuracy    <       0.00157542 Ry

     iteration # 34     ecut=    35.00 Ry     beta= 0.35
     Davidson diagonalization with overlap
     ethr =  8.39E-10,  avg # of iterations = 10.5

     negative rho (up, down):  1.656E-02 0.000E+00

     total cpu time spent up to now is      327.6 secs

     total energy              =    -186.44864295 Ry
     estimated scf accuracy    <       0.00263415 Ry

     iteration # 35     ecut=    35.00 Ry     beta= 0.35
     Davidson diagonalization with overlap
     ethr =  8.39E-10,  avg # of iterations = 10.2

     negative rho (up, down):  2.066E-02 0.000E+00

     total cpu time spent up to now is      341.0 secs

     total energy              =    -186.44844201 Ry
     estimated scf accuracy    <       0.00429185 Ry

     iteration # 36     ecut=    35.00 Ry     beta= 0.35
     Davidson diagonalization with overlap
     ethr =  8.39E-10,  avg # of iterations = 10.5

     negative rho (up, down):  2.538E-02 0.000E+00

     total cpu time spent up to now is      354.4 secs

     total energy              =    -186.44823903 Ry
     estimated scf accuracy    <       0.00690178 Ry

     iteration # 37     ecut=    35.00 Ry     beta= 0.35
     Davidson diagonalization with overlap
     ethr =  8.39E-10,  avg # of iterations = 10.5

     negative rho (up, down):  3.156E-02 0.000E+00

     total cpu time spent up to now is      368.1 secs

     total energy              =    -186.44785676 Ry
     estimated scf accuracy    <       0.01091700 Ry

     iteration # 38     ecut=    35.00 Ry     beta= 0.35
     Davidson diagonalization with overlap
     ethr =  8.39E-10,  avg # of iterations = 11.0

     negative rho (up, down):  4.256E-02 0.000E+00

     total cpu time spent up to now is      383.0 secs

     total energy              =    -186.44609429 Ry
     estimated scf accuracy    <       0.01750193 Ry

     iteration # 39     ecut=    35.00 Ry     beta= 0.35
     Davidson diagonalization with overlap
     ethr =  8.39E-10,  avg # of iterations = 11.0

     negative rho (up, down):  4.899E-02 0.000E+00

     total cpu time spent up to now is      397.8 secs

     total energy              =    -186.44656317 Ry
     estimated scf accuracy    <       0.02810460 Ry

     iteration # 40     ecut=    35.00 Ry     beta= 0.35
     Davidson diagonalization with overlap
     ethr =  8.39E-10,  avg # of iterations = 12.2

     negative rho (up, down):  6.333E-02 0.000E+00

     total cpu time spent up to now is      414.1 secs

     total energy              =    -186.44517349 Ry
     estimated scf accuracy    <       0.04414671 Ry

     iteration # 41     ecut=    35.00 Ry     beta= 0.35
     Davidson diagonalization with overlap
     ethr =  8.39E-10,  avg # of iterations = 11.8

     negative rho (up, down):  8.100E-02 0.000E+00

     total cpu time spent up to now is      430.1 secs

     total energy              =    -186.44357370 Ry
     estimated scf accuracy    <       0.06816239 Ry

     iteration # 42     ecut=    35.00 Ry     beta= 0.35
     Davidson diagonalization with overlap
     ethr =  8.39E-10,  avg # of iterations = 12.5

     negative rho (up, down):  1.015E-01 0.000E+00

     total cpu time spent up to now is      446.2 secs

     total energy              =    -186.44238207 Ry
     estimated scf accuracy    <       0.09950523 Ry

     iteration # 43     ecut=    35.00 Ry     beta= 0.35
     Davidson diagonalization with overlap
     ethr =  8.39E-10,  avg # of iterations = 12.0

     negative rho (up, down):  1.277E-01 0.000E+00

     total cpu time spent up to now is      462.0 secs

     total energy              =    -186.44056467 Ry
     estimated scf accuracy    <       0.13758058 Ry

     iteration # 44     ecut=    35.00 Ry     beta= 0.35
     Davidson diagonalization with overlap
     ethr =  8.39E-10,  avg # of iterations = 11.8

     negative rho (up, down):  1.553E-01 0.000E+00

     total cpu time spent up to now is      477.5 secs

     total energy              =    -186.43859995 Ry
     estimated scf accuracy    <       0.17778407 Ry

     iteration # 45     ecut=    35.00 Ry     beta= 0.35
     Davidson diagonalization with overlap
     ethr =  8.39E-10,  avg # of iterations = 11.8

     negative rho (up, down):  1.775E-01 0.000E+00

     total cpu time spent up to now is      492.4 secs

     total energy              =    -186.43944032 Ry
     estimated scf accuracy    <       0.21784909 Ry

     iteration # 46     ecut=    35.00 Ry     beta= 0.35
     Davidson diagonalization with overlap
     ethr =  8.39E-10,  avg # of iterations = 11.2

     negative rho (up, down):  2.007E-01 0.000E+00

     total cpu time spent up to now is      507.8 secs

     total energy              =    -186.44141321 Ry
     estimated scf accuracy    <       0.26051973 Ry

     iteration # 47     ecut=    35.00 Ry     beta= 0.35
     Davidson diagonalization with overlap
     ethr =  8.39E-10,  avg # of iterations = 12.2

     negative rho (up, down):  2.330E-01 0.000E+00

     total cpu time spent up to now is      524.3 secs

     total energy              =    -186.44051513 Ry
     estimated scf accuracy    <       0.29587527 Ry

     iteration # 48     ecut=    35.00 Ry     beta= 0.35
     Davidson diagonalization with overlap
     ethr =  8.39E-10,  avg # of iterations = 11.5

     negative rho (up, down):  2.698E-01 0.000E+00

     total cpu time spent up to now is      540.2 secs

     total energy              =    -186.43742275 Ry
     estimated scf accuracy    <       0.32071267 Ry

     iteration # 49     ecut=    35.00 Ry     beta= 0.35
     Davidson diagonalization with overlap
     ethr =  8.39E-10,  avg # of iterations = 10.8

     negative rho (up, down):  3.028E-01 0.000E+00

     total cpu time spent up to now is      554.9 secs

     total energy              =    -186.43398110 Ry
     estimated scf accuracy    <       0.34073406 Ry

     iteration # 50     ecut=    35.00 Ry     beta= 0.35
     Davidson diagonalization with overlap
     ethr =  8.39E-10,  avg # of iterations = 10.5

     negative rho (up, down):  3.276E-01 0.000E+00

     total cpu time spent up to now is      569.8 secs

     total energy              =    -186.43250691 Ry
     estimated scf accuracy    <       0.34841806 Ry

     iteration # 51     ecut=    35.00 Ry     beta= 0.35
     Davidson diagonalization with overlap
     ethr =  8.39E-10,  avg # of iterations = 12.0

     negative rho (up, down):  3.423E-01 0.000E+00

     total cpu time spent up to now is      585.8 secs

     total energy              =    -186.43161612 Ry
     estimated scf accuracy    <       0.37702568 Ry

     iteration # 52     ecut=    35.00 Ry     beta= 0.35
     Davidson diagonalization with overlap
     ethr =  8.39E-10,  avg # of iterations = 12.2

     negative rho (up, down):  3.541E-01 0.000E+00

     total cpu time spent up to now is      602.1 secs

     total energy              =    -186.43118887 Ry
     estimated scf accuracy    <       0.36287128 Ry

     iteration # 53     ecut=    35.00 Ry     beta= 0.35
     Davidson diagonalization with overlap
     ethr =  8.39E-10,  avg # of iterations = 12.2

     negative rho (up, down):  3.759E-01 0.000E+00

     total cpu time spent up to now is      618.1 secs

     total energy              =    -186.42573361 Ry
     estimated scf accuracy    <       0.35503079 Ry

     iteration # 54     ecut=    35.00 Ry     beta= 0.35
     Davidson diagonalization with overlap
     ethr =  8.39E-10,  avg # of iterations = 12.0

     negative rho (up, down):  4.031E-01 0.000E+00

     total cpu time spent up to now is      635.5 secs

     total energy              =    -186.40954930 Ry
     estimated scf accuracy    <       0.32898082 Ry

     iteration # 55     ecut=    35.00 Ry     beta= 0.35
     Davidson diagonalization with overlap
     ethr =  8.39E-10,  avg # of iterations = 13.8

     negative rho (up, down):  3.812E-01 0.000E+00

     total cpu time spent up to now is      653.1 secs

     total energy              =    -186.41473438 Ry
     estimated scf accuracy    <       0.15994883 Ry

     iteration # 56     ecut=    35.00 Ry     beta= 0.35
     Davidson diagonalization with overlap
     ethr =  8.39E-10,  avg # of iterations = 12.0

     negative rho (up, down):  3.223E-01 0.000E+00

     total cpu time spent up to now is      672.9 secs

     total energy              =    -186.43290928 Ry
     estimated scf accuracy    <       0.14383345 Ry

     iteration # 57     ecut=    35.00 Ry     beta= 0.35
     Davidson diagonalization with overlap
     ethr =  8.39E-10,  avg # of iterations = 17.8

     negative rho (up, down):  2.646E-01 0.000E+00

     total cpu time spent up to now is      698.8 secs

     total energy              =    -186.46829507 Ry
     estimated scf accuracy    <       0.09717192 Ry

     iteration # 58     ecut=    35.00 Ry     beta= 0.35
     Davidson diagonalization with overlap
     ethr =  8.39E-10,  avg # of iterations = 16.5

     negative rho (up, down):  3.757E-01 0.000E+00

     total cpu time spent up to now is      722.2 secs

     total energy              =    -186.40178366 Ry
     estimated scf accuracy    <       0.11569168 Ry

     iteration # 59     ecut=    35.00 Ry     beta= 0.35
     Davidson diagonalization with overlap
     c_bands:  2 eigenvalues not converged
     c_bands:  2 eigenvalues not converged
     c_bands:  2 eigenvalues not converged
     ethr =  8.39E-10,  avg # of iterations = 22.5

     negative rho (up, down):  1.869E-01 0.000E+00

     total cpu time spent up to now is      753.5 secs

     total energy              =    -186.39395444 Ry
     estimated scf accuracy    <       1.91990231 Ry

     iteration # 60     ecut=    35.00 Ry     beta= 0.35
     Davidson diagonalization with overlap
     c_bands:  1 eigenvalues not converged
     c_bands:  1 eigenvalues not converged
     c_bands:  4 eigenvalues not converged
     ethr =  8.39E-10,  avg # of iterations = 24.0

     negative rho (up, down):  1.802E-01 0.000E+00

     total cpu time spent up to now is      795.6 secs

     total energy              =    -186.47605531 Ry
     estimated scf accuracy    <       0.04335458 Ry

     iteration # 61     ecut=    35.00 Ry     beta= 0.35
     Davidson diagonalization with overlap
     ethr =  8.39E-10,  avg # of iterations = 18.0

     negative rho (up, down):  2.184E-01 0.000E+00

     total cpu time spent up to now is      823.4 secs

     total energy              =    -186.48363153 Ry
     estimated scf accuracy    <       0.02323794 Ry

     iteration # 62     ecut=    35.00 Ry     beta= 0.35
     Davidson diagonalization with overlap
     ethr =  8.39E-10,  avg # of iterations = 13.0

     negative rho (up, down):  2.515E-01 0.000E+00

     total cpu time spent up to now is      844.0 secs

     total energy              =    -186.48652790 Ry
     estimated scf accuracy    <       0.00460123 Ry

     iteration # 63     ecut=    35.00 Ry     beta= 0.35
     Davidson diagonalization with overlap
     ethr =  8.39E-10,  avg # of iterations = 15.0

     negative rho (up, down):  2.736E-01 0.000E+00

     total cpu time spent up to now is      866.9 secs

     total energy              =    -186.49143259 Ry
     estimated scf accuracy    <       0.00019956 Ry

     iteration # 64     ecut=    35.00 Ry     beta= 0.35
     Davidson diagonalization with overlap
     ethr =  8.39E-10,  avg # of iterations = 12.8

     negative rho (up, down):  2.925E-01 0.000E+00

     total cpu time spent up to now is      885.5 secs

     total energy              =    -186.49739284 Ry
     estimated scf accuracy    <       0.00003410 Ry

     iteration # 65     ecut=    35.00 Ry     beta= 0.35
     Davidson diagonalization with overlap
     ethr =  8.39E-10,  avg # of iterations = 12.8

     negative rho (up, down):  3.162E-01 0.000E+00

     total cpu time spent up to now is      910.2 secs

     total energy              =    -186.50312575 Ry
     estimated scf accuracy    <       0.00388221 Ry

     iteration # 66     ecut=    35.00 Ry     beta= 0.35
     Davidson diagonalization with overlap
     ethr =  8.39E-10,  avg # of iterations = 11.0

     negative rho (up, down):  3.468E-01 0.000E+00

     total cpu time spent up to now is      935.4 secs

     total energy              =    -186.50593144 Ry
     estimated scf accuracy    <       0.01544951 Ry

     iteration # 67     ecut=    35.00 Ry     beta= 0.35
     Davidson diagonalization with overlap
     ethr =  8.39E-10,  avg # of iterations = 11.2

     negative rho (up, down):  3.775E-01 0.000E+00

     total cpu time spent up to now is      951.4 secs

     total energy              =    -186.50699357 Ry
     estimated scf accuracy    <       0.02538608 Ry

     iteration # 68     ecut=    35.00 Ry     beta= 0.35
     Davidson diagonalization with overlap
     ethr =  8.39E-10,  avg # of iterations = 12.2

     negative rho (up, down):  4.071E-01 0.000E+00

     total cpu time spent up to now is      969.7 secs

     total energy              =    -186.50668213 Ry
     estimated scf accuracy    <       0.02784493 Ry

     iteration # 69     ecut=    35.00 Ry     beta= 0.35
     Davidson diagonalization with overlap
     ethr =  8.39E-10,  avg # of iterations =  9.2

     negative rho (up, down):  4.318E-01 0.000E+00

     total cpu time spent up to now is      984.7 secs

     total energy              =    -186.50618943 Ry
     estimated scf accuracy    <       0.03278027 Ry

     iteration # 70     ecut=    35.00 Ry     beta= 0.35
     Davidson diagonalization with overlap
     ethr =  8.39E-10,  avg # of iterations =  9.2

     negative rho (up, down):  4.547E-01 0.000E+00

     total cpu time spent up to now is      998.9 secs

     total energy              =    -186.50480636 Ry
     estimated scf accuracy    <       0.03347401 Ry

     iteration # 71     ecut=    35.00 Ry     beta= 0.35
     Davidson diagonalization with overlap
     ethr =  8.39E-10,  avg # of iterations = 10.5

     negative rho (up, down):  4.708E-01 0.000E+00

     total cpu time spent up to now is     1015.5 secs

     total energy              =    -186.50415726 Ry
     estimated scf accuracy    <       0.03681394 Ry

     iteration # 72     ecut=    35.00 Ry     beta= 0.35
     Davidson diagonalization with overlap
     ethr =  8.39E-10,  avg # of iterations =  8.2

     negative rho (up, down):  4.836E-01 0.000E+00

     total cpu time spent up to now is     1028.9 secs

     total energy              =    -186.50360475 Ry
     estimated scf accuracy    <       0.03820164 Ry

     iteration # 73     ecut=    35.00 Ry     beta= 0.35
     Davidson diagonalization with overlap
     ethr =  8.39E-10,  avg # of iterations =  7.2

     negative rho (up, down):  4.907E-01 0.000E+00

     total cpu time spent up to now is     1056.2 secs

     total energy              =    -186.50370795 Ry
     estimated scf accuracy    <       0.03924874 Ry

     iteration # 74     ecut=    35.00 Ry     beta= 0.35
     Davidson diagonalization with overlap
     ethr =  8.39E-10,  avg # of iterations = 10.2

     negative rho (up, down):  5.068E-01 0.000E+00

     total cpu time spent up to now is     1072.0 secs

     total energy              =    -186.50033427 Ry
     estimated scf accuracy    <       0.03551478 Ry

     iteration # 75     ecut=    35.00 Ry     beta= 0.35
     Davidson diagonalization with overlap
     ethr =  8.39E-10,  avg # of iterations = 11.0

     negative rho (up, down):  5.105E-01 0.000E+00

     total cpu time spent up to now is     1087.0 secs

     total energy              =    -186.49967408 Ry
     estimated scf accuracy    <       0.03138276 Ry

     iteration # 76     ecut=    35.00 Ry     beta= 0.35
     Davidson diagonalization with overlap
     ethr =  8.39E-10,  avg # of iterations = 11.2

     negative rho (up, down):  5.032E-01 0.000E+00

     total cpu time spent up to now is     1102.0 secs

     total energy              =    -186.50182189 Ry
     estimated scf accuracy    <       0.02449591 Ry

     iteration # 77     ecut=    35.00 Ry     beta= 0.35
     Davidson diagonalization with overlap
     ethr =  8.39E-10,  avg # of iterations = 12.5

     negative rho (up, down):  4.895E-01 0.000E+00

     total cpu time spent up to now is     1119.0 secs

     total energy              =    -186.50616284 Ry
     estimated scf accuracy    <       0.02113755 Ry

     iteration # 78     ecut=    35.00 Ry     beta= 0.35
     Davidson diagonalization with overlap
     ethr =  8.39E-10,  avg # of iterations = 14.0

     negative rho (up, down):  4.889E-01 0.000E+00

     total cpu time spent up to now is     1138.1 secs

     total energy              =    -186.50739826 Ry
     estimated scf accuracy    <       0.00770967 Ry

     iteration # 79     ecut=    35.00 Ry     beta= 0.35
     Davidson diagonalization with overlap
     ethr =  8.39E-10,  avg # of iterations =  9.0

     negative rho (up, down):  4.869E-01 0.000E+00

     total cpu time spent up to now is     1150.7 secs

     total energy              =    -186.50862495 Ry
     estimated scf accuracy    <       0.00553760 Ry

     iteration # 80     ecut=    35.00 Ry     beta= 0.35
     Davidson diagonalization with overlap
     ethr =  8.39E-10,  avg # of iterations = 11.5

     negative rho (up, down):  4.900E-01 0.000E+00

     total cpu time spent up to now is     1167.4 secs

     total energy              =    -186.50871744 Ry
     estimated scf accuracy    <       0.00329063 Ry

     iteration # 81     ecut=    35.00 Ry     beta= 0.35
     Davidson diagonalization with overlap
     ethr =  8.39E-10,  avg # of iterations =  6.8

     negative rho (up, down):  4.897E-01 0.000E+00

     total cpu time spent up to now is     1179.2 secs

     total energy              =    -186.50895388 Ry
     estimated scf accuracy    <       0.00340163 Ry

     iteration # 82     ecut=    35.00 Ry     beta= 0.35
     Davidson diagonalization with overlap
     ethr =  8.39E-10,  avg # of iterations = 14.5

     negative rho (up, down):  4.919E-01 0.000E+00

     total cpu time spent up to now is     1204.1 secs

     total energy              =    -186.50925951 Ry
     estimated scf accuracy    <       0.00058152 Ry

     iteration # 83     ecut=    35.00 Ry     beta= 0.35
     Davidson diagonalization with overlap
     ethr =  8.39E-10,  avg # of iterations = 13.0

     negative rho (up, down):  4.960E-01 0.000E+00

     total cpu time spent up to now is     1221.6 secs

     total energy              =    -186.50930513 Ry
     estimated scf accuracy    <       0.00004823 Ry

     iteration # 84     ecut=    35.00 Ry     beta= 0.35
     Davidson diagonalization with overlap
     ethr =  8.39E-10,  avg # of iterations =  9.2

     negative rho (up, down):  4.997E-01 0.000E+00

     total cpu time spent up to now is     1236.3 secs

     total energy              =    -186.50930942 Ry
     estimated scf accuracy    <       0.00000300 Ry

     iteration # 85     ecut=    35.00 Ry     beta= 0.35
     Davidson diagonalization with overlap
     ethr =  8.39E-10,  avg # of iterations =  7.2

     negative rho (up, down):  5.032E-01 0.000E+00

     total cpu time spent up to now is     1247.8 secs

     total energy              =    -186.50928962 Ry
     estimated scf accuracy    <       0.00000716 Ry

     iteration # 86     ecut=    35.00 Ry     beta= 0.35
     Davidson diagonalization with overlap
     ethr =  8.39E-10,  avg # of iterations =  7.8

     negative rho (up, down):  5.060E-01 0.000E+00

     total cpu time spent up to now is     1264.7 secs

     total energy              =    -186.50928291 Ry
     estimated scf accuracy    <       0.00000042 Ry

     iteration # 87     ecut=    35.00 Ry     beta= 0.35
     Davidson diagonalization with overlap
     ethr =  8.39E-10,  avg # of iterations =  6.0

     negative rho (up, down):  5.085E-01 0.000E+00

     total cpu time spent up to now is     1288.1 secs

     total energy              =    -186.50926400 Ry
     estimated scf accuracy    <       0.00000155 Ry

     iteration # 88     ecut=    35.00 Ry     beta= 0.35
     Davidson diagonalization with overlap
     ethr =  8.39E-10,  avg # of iterations =  6.0

     negative rho (up, down):  5.144E-01 0.000E+00

     total cpu time spent up to now is     1298.3 secs

     End of self-consistent calculation

          k = 0.0000 0.0000 0.0000 (  5393 PWs)   bands (ev):

   -70.2964 -44.6325 -44.6325 -42.9823 -19.4956 -18.3194  -9.8811  -8.1878
    -8.1878  -7.8540  -6.8067  -6.8067  -6.7465  -4.8048  -4.8048  -4.0703

          k = 0.0000 0.2887 0.0000 (  5444 PWs)   bands (ev):

   -70.2961 -44.6433 -44.6368 -42.9806 -19.2329 -18.2231  -9.6830  -9.5108
    -8.1594  -7.6844  -7.3925  -7.0606  -6.6211  -5.2693  -5.1086  -4.3759

          k = 0.0000-0.5774 0.0000 (  5458 PWs)   bands (ev):

   -70.2958 -44.6502 -44.6397 -42.9786 -18.9428 -18.1160 -10.6785  -9.1791
    -8.2251  -8.1096  -7.4242  -7.1041  -6.6305  -5.5957  -5.4181  -4.0359

          k = 0.2500 0.4330 0.0000 (  5425 PWs)   bands (ev):

   -70.2957 -44.6439 -44.6376 -42.9783 -18.9469 -18.1162 -10.2701  -9.1814
    -9.1253  -7.8336  -7.4778  -6.9575  -6.6373  -5.8852  -5.1227  -4.1651

     the Fermi energy is    -6.8030 ev

!    total energy              =    -186.50920602 Ry
     estimated scf accuracy    <       0.00000007 Ry
     smearing contrib. (-TS)   =      -0.00081330 Ry
     internal energy E=F+TS    =    -186.50839272 Ry

     The total energy is F=E-TS. E is the sum of the following terms:
     one-electron contribution =   -1061.17431735 Ry
     hartree contribution      =     526.84902407 Ry
     xc contribution           =     -32.27552462 Ry
     ewald contribution        =     380.09242520 Ry

     convergence has been achieved in  88 iterations

     negative rho (up, down):  5.144E-01 0.000E+00

     Forces acting on atoms (cartesian axes, Ry/au):

     atom    1 type  3   force =     0.00000000   -0.00000000   -0.09066085
     atom    2 type  2   force =     0.00000000   -0.00000000   -0.06396821
     atom    3 type  1   force =     0.00000000    0.00000000    0.15462906

     Total force =     0.190319     Total SCF correction =     0.000615


     Computing stress (Cartesian axis) and pressure


     negative rho (up, down):  5.144E-01 0.000E+00
          total   stress  (Ry/bohr**3)                   (kbar)     P=      -52.95
  -0.00017135   0.00000000   0.00000000          -25.21        0.00        0.00
   0.00000000  -0.00017135  -0.00000000            0.00      -25.21       -0.00
   0.00000000  -0.00000000  -0.00073707            0.00       -0.00     -108.43


     BFGS Geometry Optimization
     Energy error            =      3.6E-02 Ry
     Gradient error          =      1.5E-01 Ry/Bohr

     number of scf cycles    =   1
     number of bfgs steps    =   0

     energy             new  =    -186.5092060162 Ry

     new trust radius        =       0.1546290575 bohr
     new conv_thr            =       0.0000001000 Ry


ATOMIC_POSITIONS (angstrom)
V                0.0000000000       -0.0000000000       -0.0479756563
Se               1.9223227000        1.1098535300        1.4195124730
N                1.9223227000        1.1098535300       -1.3715368166



     Writing config-only to output data dir ./tmp/candidate_03_VNSe.save/ :
     XML data file
     NEW-OLD atomic charge density approx. for the potential

     Check: negative core charge=   -0.000005

     negative rho (up, down):  5.126E-01 0.000E+00

     total cpu time spent up to now is     1305.7 secs

     per-process dynamical memory:   132.0 Mb

     Self-consistent Calculation

     iteration #  1     ecut=    35.00 Ry     beta= 0.35
     Davidson diagonalization with overlap
     ethr =  1.00E-06,  avg # of iterations = 12.0

     negative rho (up, down):  3.100E-01 0.000E+00

     total cpu time spent up to now is     1325.4 secs

     total energy              =    -185.71044726 Ry
     estimated scf accuracy    <       1.49684557 Ry

     iteration #  2     ecut=    35.00 Ry     beta= 0.35
     Davidson diagonalization with overlap
     ethr =  6.24E-03,  avg # of iterations =  5.0

     negative rho (up, down):  2.793E-01 0.000E+00

     total cpu time spent up to now is     1335.1 secs

     total energy              =    -185.66052630 Ry
     estimated scf accuracy    <      25.46421884 Ry

     iteration #  3     ecut=    35.00 Ry     beta= 0.35
     Davidson diagonalization with overlap
     ethr =  6.24E-03,  avg # of iterations =  2.8

     negative rho (up, down):  2.946E-01 0.000E+00

     total cpu time spent up to now is     1340.9 secs

     total energy              =    -186.37634668 Ry
     estimated scf accuracy    <       2.16329998 Ry

     iteration #  4     ecut=    35.00 Ry     beta= 0.35
     Davidson diagonalization with overlap
     ethr =  6.24E-03,  avg # of iterations =  3.2

     negative rho (up, down):  3.105E-01 0.000E+00

     total cpu time spent up to now is     1347.9 secs

     total energy              =    -186.47765186 Ry
     estimated scf accuracy    <       0.52768571 Ry

     iteration #  5     ecut=    35.00 Ry     beta= 0.35
     Davidson diagonalization with overlap
     ethr =  2.20E-03,  avg # of iterations =  2.0

     negative rho (up, down):  3.308E-01 0.000E+00

     total cpu time spent up to now is     1353.3 secs

     total energy              =    -186.51984829 Ry
     estimated scf accuracy    <       0.09464440 Ry

     iteration #  6     ecut=    35.00 Ry     beta= 0.35
     Davidson diagonalization with overlap
     ethr =  3.94E-04,  avg # of iterations =  4.8

     negative rho (up, down):  3.468E-01 0.000E+00

     total cpu time spent up to now is     1362.4 secs

     total energy              =    -186.54095120 Ry
     estimated scf accuracy    <       0.03728944 Ry

     iteration #  7     ecut=    35.00 Ry     beta= 0.35
     Davidson diagonalization with overlap
     ethr =  1.55E-04,  avg # of iterations =  2.2

     negative rho (up, down):  3.669E-01 0.000E+00

     total cpu time spent up to now is     1367.6 secs

     total energy              =    -186.54742129 Ry
     estimated scf accuracy    <       0.05483475 Ry

     iteration #  8     ecut=    35.00 Ry     beta= 0.35
     Davidson diagonalization with overlap
     ethr =  1.55E-04,  avg # of iterations =  2.0

     negative rho (up, down):  3.952E-01 0.000E+00

     total cpu time spent up to now is     1372.6 secs

     total energy              =    -186.54549544 Ry
     estimated scf accuracy    <       0.04360691 Ry

     iteration #  9     ecut=    35.00 Ry     beta= 0.35
     Davidson diagonalization with overlap
     ethr =  1.55E-04,  avg # of iterations =  2.0

     negative rho (up, down):  4.073E-01 0.000E+00

     total cpu time spent up to now is     1377.1 secs

     total energy              =    -186.55166993 Ry
     estimated scf accuracy    <       0.00167657 Ry

     iteration # 10     ecut=    35.00 Ry     beta= 0.35
     Davidson diagonalization with overlap
     ethr =  6.99E-06,  avg # of iterations =  6.0

     negative rho (up, down):  4.267E-01 0.000E+00

     total cpu time spent up to now is     1385.4 secs

     total energy              =    -186.55385101 Ry
     estimated scf accuracy    <       0.00444460 Ry

     iteration # 11     ecut=    35.00 Ry     beta= 0.35
     Davidson diagonalization with overlap
     ethr =  6.99E-06,  avg # of iterations =  2.2

     negative rho (up, down):  4.476E-01 0.000E+00

     total cpu time spent up to now is     1390.5 secs

     total energy              =    -186.55489879 Ry
     estimated scf accuracy    <       0.00188395 Ry

     iteration # 12     ecut=    35.00 Ry     beta= 0.35
     Davidson diagonalization with overlap
     ethr =  6.99E-06,  avg # of iterations =  3.0

     negative rho (up, down):  4.647E-01 0.000E+00

     total cpu time spent up to now is     1396.0 secs

     total energy              =    -186.55568654 Ry
     estimated scf accuracy    <       0.00050155 Ry

     iteration # 13     ecut=    35.00 Ry     beta= 0.35
     Davidson diagonalization with overlap
     ethr =  2.09E-06,  avg # of iterations =  3.8

     negative rho (up, down):  4.875E-01 0.000E+00

     total cpu time spent up to now is     1402.1 secs

     total energy              =    -186.55372619 Ry
     estimated scf accuracy    <       0.00214886 Ry

     iteration # 14     ecut=    35.00 Ry     beta= 0.35
     Davidson diagonalization with overlap
     ethr =  2.09E-06,  avg # of iterations =  4.8

     negative rho (up, down):  5.014E-01 0.000E+00

     total cpu time spent up to now is     1408.7 secs

     total energy              =    -186.55417727 Ry
     estimated scf accuracy    <       0.00380106 Ry

     iteration # 15     ecut=    35.00 Ry     beta= 0.35
     Davidson diagonalization with overlap
     ethr =  2.09E-06,  avg # of iterations =  2.8

     negative rho (up, down):  5.169E-01 0.000E+00

     total cpu time spent up to now is     1413.4 secs

     total energy              =    -186.55160508 Ry
     estimated scf accuracy    <       0.00460176 Ry

     iteration # 16     ecut=    35.00 Ry     beta= 0.35
     Davidson diagonalization with overlap
     ethr =  2.09E-06,  avg # of iterations =  6.2

     negative rho (up, down):  5.290E-01 0.000E+00

     total cpu time spent up to now is     1421.7 secs

     total energy              =    -186.55071640 Ry
     estimated scf accuracy    <       0.00230720 Ry

     iteration # 17     ecut=    35.00 Ry     beta= 0.35
     Davidson diagonalization with overlap
     ethr =  2.09E-06,  avg # of iterations =  2.0

     negative rho (up, down):  5.314E-01 0.000E+00

     total cpu time spent up to now is     1426.1 secs

     total energy              =    -186.55209687 Ry
     estimated scf accuracy    <       0.00312914 Ry

     iteration # 18     ecut=    35.00 Ry     beta= 0.35
     Davidson diagonalization with overlap
     ethr =  2.09E-06,  avg # of iterations =  2.2

     negative rho (up, down):  5.271E-01 0.000E+00

     total cpu time spent up to now is     1430.9 secs

     total energy              =    -186.55678764 Ry
     estimated scf accuracy    <       0.00197199 Ry

     iteration # 19     ecut=    35.00 Ry     beta= 0.35
     Davidson diagonalization with overlap
     ethr =  2.09E-06,  avg # of iterations =  3.0

     negative rho (up, down):  5.340E-01 0.000E+00

     total cpu time spent up to now is     1436.1 secs

     total energy              =    -186.55645304 Ry
     estimated scf accuracy    <       0.00062728 Ry

     iteration # 20     ecut=    35.00 Ry     beta= 0.35
     Davidson diagonalization with overlap
     ethr =  2.09E-06,  avg # of iterations =  3.0

     negative rho (up, down):  5.387E-01 0.000E+00

     total cpu time spent up to now is     1441.2 secs

     total energy              =    -186.55693663 Ry
     estimated scf accuracy    <       0.00005132 Ry

     iteration # 21     ecut=    35.00 Ry     beta= 0.35
     Davidson diagonalization with overlap
     ethr =  2.14E-07,  avg # of iterations =  5.0

     negative rho (up, down):  5.431E-01 0.000E+00

     total cpu time spent up to now is     1448.1 secs

     total energy              =    -186.55696230 Ry
     estimated scf accuracy    <       0.00000967 Ry

     iteration # 22     ecut=    35.00 Ry     beta= 0.35
     Davidson diagonalization with overlap
     ethr =  4.03E-08,  avg # of iterations =  4.0

     negative rho (up, down):  5.468E-01 0.000E+00

     total cpu time spent up to now is     1454.0 secs

     total energy              =    -186.55692067 Ry
     estimated scf accuracy    <       0.00000224 Ry

     iteration # 23     ecut=    35.00 Ry     beta= 0.35
     Davidson diagonalization with overlap
     ethr =  9.35E-09,  avg # of iterations =  5.2

     negative rho (up, down):  5.498E-01 0.000E+00

     total cpu time spent up to now is     1461.3 secs

     total energy              =    -186.55693912 Ry
     estimated scf accuracy    <       0.00000245 Ry

     iteration # 24     ecut=    35.00 Ry     beta= 0.35
     Davidson diagonalization with overlap
     ethr =  9.35E-09,  avg # of iterations =  4.8

     negative rho (up, down):  5.521E-01 0.000E+00

     total cpu time spent up to now is     1468.2 secs

     total energy              =    -186.55692183 Ry
     estimated scf accuracy    <       0.00000059 Ry

     iteration # 25     ecut=    35.00 Ry     beta= 0.35
     Davidson diagonalization with overlap
     ethr =  2.45E-09,  avg # of iterations =  5.0

     negative rho (up, down):  5.539E-01 0.000E+00

     total cpu time spent up to now is     1475.3 secs

     total energy              =    -186.55690313 Ry
     estimated scf accuracy    <       0.00000032 Ry

     iteration # 26     ecut=    35.00 Ry     beta= 0.35
     Davidson diagonalization with overlap
     ethr =  1.35E-09,  avg # of iterations =  5.0

     negative rho (up, down):  5.582E-01 0.000E+00

     total cpu time spent up to now is     1482.2 secs

     End of self-consistent calculation

          k = 0.0000 0.0000 0.0000 (  5393 PWs)   bands (ev):

   -69.9887 -44.4479 -44.4479 -42.5846 -19.5088 -18.2345  -9.8447  -8.1450
    -8.1450  -8.0068  -6.7794  -6.7794  -6.5412  -4.5074  -4.5074  -3.8909

          k = 0.0000 0.2887 0.0000 (  5444 PWs)   bands (ev):

   -69.9884 -44.4589 -44.4522 -42.5828 -19.2526 -18.1320  -9.6832  -9.4783
    -8.0703  -7.7089  -7.4501  -7.0876  -6.4013  -5.0622  -4.8724  -4.1706

          k = 0.0000-0.5774 0.0000 (  5458 PWs)   bands (ev):

   -69.9880 -44.4660 -44.4552 -42.5808 -18.9731 -18.0148 -10.6470  -9.1897
    -8.0972  -8.0943  -7.5146  -7.1731  -6.3952  -5.4585  -5.2238  -3.7793

          k = 0.2500 0.4330 0.0000 (  5425 PWs)   bands (ev):

   -69.9879 -44.4597 -44.4532 -42.5804 -18.9772 -18.0151 -10.2493  -9.1779
    -9.0594  -7.8569  -7.4512  -7.0366  -6.4053  -5.7469  -4.9271  -3.9344

     the Fermi energy is    -6.6542 ev

!    total energy              =    -186.55685916 Ry
     estimated scf accuracy    <       0.00000007 Ry
     smearing contrib. (-TS)   =       0.00282760 Ry
     internal energy E=F+TS    =    -186.55968676 Ry

     The total energy is F=E-TS. E is the sum of the following terms:
     one-electron contribution =   -1071.34984061 Ry
     hartree contribution      =     532.11856287 Ry
     xc contribution           =     -32.41219404 Ry
     ewald contribution        =     385.08378502 Ry

     convergence has been achieved in  26 iterations

     negative rho (up, down):  5.582E-01 0.000E+00

     Forces acting on atoms (cartesian axes, Ry/au):

     atom    1 type  3   force =     0.00000000    0.00000000   -0.08352387
     atom    2 type  2   force =     0.00000000    0.00000000   -0.07992129
     atom    3 type  1   force =     0.00000000   -0.00000000    0.16344516

     Total force =     0.200195     Total SCF correction =     0.000280


     Computing stress (Cartesian axis) and pressure


     negative rho (up, down):  5.582E-01 0.000E+00
          total   stress  (Ry/bohr**3)                   (kbar)     P=      -53.27
  -0.00015619   0.00000000   0.00000000          -22.98        0.00        0.00
   0.00000000  -0.00015619   0.00000000            0.00      -22.98        0.00
   0.00000000  -0.00000000  -0.00077400            0.00       -0.00     -113.86

     Energy error            =      4.8E-02 Ry
     Gradient error          =      1.6E-01 Ry/Bohr

     number of scf cycles    =   2
     number of bfgs steps    =   1

     energy             old  =    -186.5092060162 Ry
     energy             new  =    -186.5568591594 Ry

     CASE: energy            _new < energy            _old


     WARNING: bfgs curvature condition failed, Theta= 0.763
     new trust radius        =       0.1700919633 bohr
     new conv_thr            =       0.0000001000 Ry


ATOMIC_POSITIONS (angstrom)
V                0.0000000000       -0.0000000000       -0.1146307114
Se               1.9223227000        1.1098535300        1.3961587373
N                1.9223227000        1.1098535300       -1.2815280259



     Writing config-only to output data dir ./tmp/candidate_03_VNSe.save/ :
     XML data file
     NEW-OLD atomic charge density approx. for the potential

     Check: negative core charge=   -0.000005

     negative rho (up, down):  5.439E-01 0.000E+00

     total cpu time spent up to now is     1489.2 secs

     per-process dynamical memory:   132.0 Mb

     Self-consistent Calculation

     iteration #  1     ecut=    35.00 Ry     beta= 0.35
     Davidson diagonalization with overlap
     ethr =  1.00E-06,  avg # of iterations = 16.0

     negative rho (up, down):  3.145E-01 0.000E+00

     total cpu time spent up to now is     1508.0 secs

     total energy              =    -185.54598799 Ry
     estimated scf accuracy    <       1.89236383 Ry

     iteration #  2     ecut=    35.00 Ry     beta= 0.35
     Davidson diagonalization with overlap
     ethr =  7.88E-03,  avg # of iterations =  5.0

     negative rho (up, down):  2.290E-01 0.000E+00

     total cpu time spent up to now is     1514.9 secs

     total energy              =    -185.35676144 Ry
     estimated scf accuracy    <      28.93104694 Ry

     iteration #  3     ecut=    35.00 Ry     beta= 0.35
     Davidson diagonalization with overlap
     ethr =  7.88E-03,  avg # of iterations =  2.0

     negative rho (up, down):  2.210E-01 0.000E+00

     total cpu time spent up to now is     1519.2 secs

     WARNING: integrated charge=    24.00070952, expected=    24.00000000

     total energy              =    -186.35859337 Ry
     estimated scf accuracy    <       1.34163507 Ry

     iteration #  4     ecut=    35.00 Ry     beta= 0.35
     Davidson diagonalization with overlap
     ethr =  5.59E-03,  avg # of iterations =  3.5

     negative rho (up, down):  1.951E-01 0.000E+00

     total cpu time spent up to now is     1524.9 secs

     WARNING: integrated charge=    24.00092981, expected=    24.00000000

     total energy              =    -186.45432664 Ry
     estimated scf accuracy    <       0.38516494 Ry

     iteration #  5     ecut=    35.00 Ry     beta= 0.35
     Davidson diagonalization with overlap
     ethr =  1.60E-03,  avg # of iterations =  2.0

     negative rho (up, down):  1.732E-01 0.000E+00

     total cpu time spent up to now is     1529.1 secs

     WARNING: integrated charge=    24.00068263, expected=    24.00000000

     total energy              =    -186.52151240 Ry
     estimated scf accuracy    <       0.02074020 Ry

     iteration #  6     ecut=    35.00 Ry     beta= 0.35
     Davidson diagonalization with overlap
     ethr =  8.64E-05,  avg # of iterations =  8.0

     negative rho (up, down):  1.521E-01 0.000E+00

     total cpu time spent up to now is     1553.0 secs

     WARNING: integrated charge=    24.00057791, expected=    24.00000000

     total energy              =    -186.55920477 Ry
     estimated scf accuracy    <       0.03892156 Ry

     iteration #  7     ecut=    35.00 Ry     beta= 0.35
     Davidson diagonalization with overlap
     ethr =  8.64E-05,  avg # of iterations =  3.0

     negative rho (up, down):  2.038E-01 0.000E+00

     total cpu time spent up to now is     1593.5 secs

     WARNING: integrated charge=    24.00046195, expected=    24.00000000

     total energy              =    -186.57771341 Ry
     estimated scf accuracy    <       0.04820090 Ry

     iteration #  8     ecut=    35.00 Ry     beta= 0.35
     Davidson diagonalization with overlap
     ethr =  8.64E-05,  avg # of iterations =  3.5

     negative rho (up, down):  2.531E-01 0.000E+00

     total cpu time spent up to now is     1600.2 secs

     WARNING: integrated charge=    24.00031809, expected=    24.00000000

     total energy              =    -186.58313715 Ry
     estimated scf accuracy    <       0.06186522 Ry

     iteration #  9     ecut=    35.00 Ry     beta= 0.35
     Davidson diagonalization with overlap
     ethr =  8.64E-05,  avg # of iterations =  2.8
     Minimization algorithm failed to find Fermi energy: reverting to bisection
     Possible cause: smearing is larger than the electronic band-gap.

     negative rho (up, down):  2.852E-01 0.000E+00

     total cpu time spent up to now is     1604.8 secs

     WARNING: integrated charge=    24.00001046, expected=    24.00000000

     total energy              =    -186.58178612 Ry
     estimated scf accuracy    <       0.05704959 Ry

     iteration # 10     ecut=    35.00 Ry     beta= 0.35
     Davidson diagonalization with overlap
     ethr =  8.64E-05,  avg # of iterations =  3.0

     negative rho (up, down):  3.350E-01 0.000E+00

     total cpu time spent up to now is     1610.3 secs

     WARNING: integrated charge=    23.99973452, expected=    24.00000000

     total energy              =    -186.57527113 Ry
     estimated scf accuracy    <       0.01560489 Ry

     iteration # 11     ecut=    35.00 Ry     beta= 0.35
     Davidson diagonalization with overlap
     ethr =  6.50E-05,  avg # of iterations =  4.8

     negative rho (up, down):  3.199E-01 0.000E+00

     total cpu time spent up to now is     1617.5 secs

     WARNING: integrated charge=    23.99989296, expected=    24.00000000

     total energy              =    -186.58778243 Ry
     estimated scf accuracy    <       0.01356030 Ry

     iteration # 12     ecut=    35.00 Ry     beta= 0.35
     Davidson diagonalization with overlap
     ethr =  5.65E-05,  avg # of iterations =  2.0
     Minimization algorithm failed to find Fermi energy: reverting to bisection
     Possible cause: smearing is larger than the electronic band-gap.

     negative rho (up, down):  3.466E-01 0.000E+00

     total cpu time spent up to now is     1621.8 secs

     WARNING: integrated charge=    23.99989562, expected=    24.00000000

     total energy              =    -186.59441629 Ry
     estimated scf accuracy    <       0.00666640 Ry

     iteration # 13     ecut=    35.00 Ry     beta= 0.35
     Davidson diagonalization with overlap
     ethr =  2.78E-05,  avg # of iterations =  3.8

     negative rho (up, down):  3.759E-01 0.000E+00

     total cpu time spent up to now is     1627.3 secs

     WARNING: integrated charge=    23.99876815, expected=    24.00000000

     total energy              =    -186.59404970 Ry
     estimated scf accuracy    <       0.00987052 Ry

     iteration # 14     ecut=    35.00 Ry     beta= 0.35
     Davidson diagonalization with overlap
     ethr =  2.78E-05,  avg # of iterations =  2.2

     negative rho (up, down):  4.017E-01 0.000E+00

     total cpu time spent up to now is     1631.7 secs

     WARNING: integrated charge=    23.99818138, expected=    24.00000000

     total energy              =    -186.59784818 Ry
     estimated scf accuracy    <       0.01201941 Ry

     iteration # 15     ecut=    35.00 Ry     beta= 0.35
     Davidson diagonalization with overlap
     ethr =  2.78E-05,  avg # of iterations =  2.2

     negative rho (up, down):  4.225E-01 0.000E+00

     total cpu time spent up to now is     1636.1 secs

     WARNING: integrated charge=    23.99648259, expected=    24.00000000

     total energy              =    -186.59888307 Ry
     estimated scf accuracy    <       0.00886971 Ry

     iteration # 16     ecut=    35.00 Ry     beta= 0.35
     Davidson diagonalization with overlap
     ethr =  2.78E-05,  avg # of iterations =  2.8

     negative rho (up, down):  4.419E-01 0.000E+00

     total cpu time spent up to now is     1641.6 secs

     WARNING: integrated charge=    23.99655074, expected=    24.00000000

     total energy              =    -186.59970322 Ry
     estimated scf accuracy    <       0.00442017 Ry

     iteration # 17     ecut=    35.00 Ry     beta= 0.35
     Davidson diagonalization with overlap
     ethr =  1.84E-05,  avg # of iterations =  2.2

     negative rho (up, down):  4.573E-01 0.000E+00

     total cpu time spent up to now is     1646.4 secs

     WARNING: integrated charge=    23.99738089, expected=    24.00000000

     total energy              =    -186.60001515 Ry
     estimated scf accuracy    <       0.00253644 Ry

     iteration # 18     ecut=    35.00 Ry     beta= 0.35
     Davidson diagonalization with overlap
     ethr =  1.06E-05,  avg # of iterations =  2.8

     negative rho (up, down):  4.770E-01 0.000E+00

     total cpu time spent up to now is     1651.3 secs

     WARNING: integrated charge=    24.00194192, expected=    24.00000000

     total energy              =    -186.59789834 Ry
     estimated scf accuracy    <       0.00263990 Ry

     iteration # 19     ecut=    35.00 Ry     beta= 0.35
     Davidson diagonalization with overlap
     ethr =  1.06E-05,  avg # of iterations =  2.8

     negative rho (up, down):  4.876E-01 0.000E+00

     total cpu time spent up to now is     1656.2 secs

     WARNING: integrated charge=    24.00089559, expected=    24.00000000

     total energy              =    -186.59788443 Ry
     estimated scf accuracy    <       0.00564468 Ry

     iteration # 20     ecut=    35.00 Ry     beta= 0.35
     Davidson diagonalization with overlap
     ethr =  1.06E-05,  avg # of iterations =  1.2

     negative rho (up, down):  4.957E-01 0.000E+00

     total cpu time spent up to now is     1660.0 secs

     WARNING: integrated charge=    24.00094723, expected=    24.00000000

     total energy              =    -186.59795023 Ry
     estimated scf accuracy    <       0.00568470 Ry

     iteration # 21     ecut=    35.00 Ry     beta= 0.35
     Davidson diagonalization with overlap
     ethr =  1.06E-05,  avg # of iterations =  1.0

     negative rho (up, down):  4.955E-01 0.000E+00

     total cpu time spent up to now is     1663.7 secs

     WARNING: integrated charge=    23.99916390, expected=    24.00000000

     total energy              =    -186.59995517 Ry
     estimated scf accuracy    <       0.00476708 Ry

     iteration # 22     ecut=    35.00 Ry     beta= 0.35
     Davidson diagonalization with overlap
     ethr =  1.06E-05,  avg # of iterations =  3.0

     negative rho (up, down):  5.016E-01 0.000E+00

     total cpu time spent up to now is     1668.7 secs

     WARNING: integrated charge=    23.99806621, expected=    24.00000000

     total energy              =    -186.59862630 Ry
     estimated scf accuracy    <       0.00069277 Ry

     iteration # 23     ecut=    35.00 Ry     beta= 0.35
     Davidson diagonalization with overlap
     ethr =  2.89E-06,  avg # of iterations =  5.5

     negative rho (up, down):  5.079E-01 0.000E+00

     total cpu time spent up to now is     1675.5 secs

     WARNING: integrated charge=    23.99806770, expected=    24.00000000

     total energy              =    -186.59781235 Ry
     estimated scf accuracy    <       0.00049907 Ry

     iteration # 24     ecut=    35.00 Ry     beta= 0.35
     Davidson diagonalization with overlap
     ethr =  2.08E-06,  avg # of iterations =  2.0

     negative rho (up, down):  5.129E-01 0.000E+00

     total cpu time spent up to now is     1679.6 secs

     WARNING: integrated charge=    23.99791589, expected=    24.00000000

     total energy              =    -186.59801684 Ry
     estimated scf accuracy    <       0.00072033 Ry

     iteration # 25     ecut=    35.00 Ry     beta= 0.35
     Davidson diagonalization with overlap
     ethr =  2.08E-06,  avg # of iterations =  1.8

     negative rho (up, down):  5.170E-01 0.000E+00

     total cpu time spent up to now is     1683.7 secs

     WARNING: integrated charge=    23.99861172, expected=    24.00000000

     total energy              =    -186.59755306 Ry
     estimated scf accuracy    <       0.00079547 Ry

     iteration # 26     ecut=    35.00 Ry     beta= 0.35
     Davidson diagonalization with overlap
     ethr =  2.08E-06,  avg # of iterations =  1.0

     negative rho (up, down):  5.198E-01 0.000E+00

     total cpu time spent up to now is     1687.2 secs

     WARNING: integrated charge=    23.99703736, expected=    24.00000000

     total energy              =    -186.59737042 Ry
     estimated scf accuracy    <       0.00082401 Ry

     iteration # 27     ecut=    35.00 Ry     beta= 0.35
     Davidson diagonalization with overlap
     ethr =  2.08E-06,  avg # of iterations =  1.2

     negative rho (up, down):  5.218E-01 0.000E+00

     total cpu time spent up to now is     1690.7 secs

     WARNING: integrated charge=    24.00064493, expected=    24.00000000

     total energy              =    -186.59666181 Ry
     estimated scf accuracy    <       0.00083545 Ry

     iteration # 28     ecut=    35.00 Ry     beta= 0.35
     Davidson diagonalization with overlap
     ethr =  2.08E-06,  avg # of iterations =  2.0

     negative rho (up, down):  5.222E-01 0.000E+00

     total cpu time spent up to now is     1695.2 secs

     WARNING: integrated charge=    24.00062863, expected=    24.00000000

     total energy              =    -186.59664756 Ry
     estimated scf accuracy    <       0.00067620 Ry

     iteration # 29     ecut=    35.00 Ry     beta= 0.35
     Davidson diagonalization with overlap
     ethr =  2.08E-06,  avg # of iterations =  1.0

     negative rho (up, down):  5.224E-01 0.000E+00

     total cpu time spent up to now is     1698.8 secs

     WARNING: integrated charge=    23.99428986, expected=    24.00000000

     total energy              =    -186.59721440 Ry
     estimated scf accuracy    <       0.00063524 Ry

     iteration # 30     ecut=    35.00 Ry     beta= 0.35
     Davidson diagonalization with overlap
     ethr =  2.08E-06,  avg # of iterations =  2.0

     negative rho (up, down):  5.243E-01 0.000E+00

     total cpu time spent up to now is     1703.0 secs

     WARNING: integrated charge=    23.99381244, expected=    24.00000000

     total energy              =    -186.59760191 Ry
     estimated scf accuracy    <       0.00011811 Ry

     iteration # 31     ecut=    35.00 Ry     beta= 0.35
     Davidson diagonalization with overlap
     ethr =  4.92E-07,  avg # of iterations =  4.0

     negative rho (up, down):  5.272E-01 0.000E+00

     total cpu time spent up to now is     1709.2 secs

     WARNING: integrated charge=    23.99060956, expected=    24.00000000

     total energy              =    -186.59737772 Ry
     estimated scf accuracy    <       0.00007078 Ry

     iteration # 32     ecut=    35.00 Ry     beta= 0.35
     Davidson diagonalization with overlap
     ethr =  2.95E-07,  avg # of iterations =  4.0

     negative rho (up, down):  5.297E-01 0.000E+00

     total cpu time spent up to now is     1714.9 secs

     WARNING: integrated charge=    23.99090163, expected=    24.00000000

     total energy              =    -186.59706919 Ry
     estimated scf accuracy    <       0.00000368 Ry

     iteration # 33     ecut=    35.00 Ry     beta= 0.35
     Davidson diagonalization with overlap
     ethr =  1.53E-08,  avg # of iterations =  5.0

     negative rho (up, down):  5.320E-01 0.000E+00

     total cpu time spent up to now is     1722.1 secs

     WARNING: integrated charge=    23.99125147, expected=    24.00000000

     total energy              =    -186.59674309 Ry
     estimated scf accuracy    <       0.00000999 Ry

     iteration # 34     ecut=    35.00 Ry     beta= 0.35
     Davidson diagonalization with overlap
     ethr =  1.53E-08,  avg # of iterations =  4.5

     negative rho (up, down):  5.339E-01 0.000E+00

     total cpu time spent up to now is     1729.2 secs

     WARNING: integrated charge=    23.99091730, expected=    24.00000000

     total energy              =    -186.59639011 Ry
     estimated scf accuracy    <       0.00000184 Ry

     iteration # 35     ecut=    35.00 Ry     beta= 0.35
     Davidson diagonalization with overlap
     ethr =  7.67E-09,  avg # of iterations =  4.8

     negative rho (up, down):  5.355E-01 0.000E+00

     total cpu time spent up to now is     1736.1 secs

     WARNING: integrated charge=    23.99069980, expected=    24.00000000

     total energy              =    -186.59614897 Ry
     estimated scf accuracy    <       0.00000129 Ry

     iteration # 36     ecut=    35.00 Ry     beta= 0.35
     Davidson diagonalization with overlap
     ethr =  5.36E-09,  avg # of iterations =  5.0
     Minimization algorithm failed to find Fermi energy: reverting to bisection
     Possible cause: smearing is larger than the electronic band-gap.

     negative rho (up, down):  5.352E-01 0.000E+00

     total cpu time spent up to now is     1742.6 secs

     WARNING: integrated charge=    23.99073069, expected=    24.00000000

     total energy              =    -186.60036448 Ry
     estimated scf accuracy    <       0.00014686 Ry

     iteration # 37     ecut=    35.00 Ry     beta= 0.35
     Davidson diagonalization with overlap
     ethr =  5.36E-09,  avg # of iterations =  2.0
     Minimization algorithm failed to find Fermi energy: reverting to bisection
     Possible cause: smearing is larger than the electronic band-gap.

     negative rho (up, down):  5.349E-01 0.000E+00

     total cpu time spent up to now is     1747.0 secs

     WARNING: integrated charge=    23.99119815, expected=    24.00000000

     total energy              =    -186.60036481 Ry
     estimated scf accuracy    <       0.00014018 Ry

     iteration # 38     ecut=    35.00 Ry     beta= 0.35
     Davidson diagonalization with overlap
     ethr =  5.36E-09,  avg # of iterations =  2.8
     Minimization algorithm failed to find Fermi energy: reverting to bisection
     Possible cause: smearing is larger than the electronic band-gap.

     negative rho (up, down):  5.348E-01 0.000E+00

     total cpu time spent up to now is     1751.8 secs

     WARNING: integrated charge=    23.99099890, expected=    24.00000000

     total energy              =    -186.60036785 Ry
     estimated scf accuracy    <       0.00012604 Ry

     iteration # 39     ecut=    35.00 Ry     beta= 0.35
     Davidson diagonalization with overlap
     ethr =  5.36E-09,  avg # of iterations =  1.0
     Minimization algorithm failed to find Fermi energy: reverting to bisection
     Possible cause: smearing is larger than the electronic band-gap.

     negative rho (up, down):  5.347E-01 0.000E+00

     total cpu time spent up to now is     1755.4 secs

     WARNING: integrated charge=    23.99145595, expected=    24.00000000

     total energy              =    -186.60036450 Ry
     estimated scf accuracy    <       0.00012962 Ry

     iteration # 40     ecut=    35.00 Ry     beta= 0.35
     Davidson diagonalization with overlap
     ethr =  5.36E-09,  avg # of iterations =  1.5
     Minimization algorithm failed to find Fermi energy: reverting to bisection
     Possible cause: smearing is larger than the electronic band-gap.

     negative rho (up, down):  5.346E-01 0.000E+00

     total cpu time spent up to now is     1759.3 secs

     WARNING: integrated charge=    23.99161283, expected=    24.00000000

     total energy              =    -186.60036349 Ry
     estimated scf accuracy    <       0.00012055 Ry

     iteration # 41     ecut=    35.00 Ry     beta= 0.35
     Davidson diagonalization with overlap
     ethr =  5.36E-09,  avg # of iterations =  1.2
     Minimization algorithm failed to find Fermi energy: reverting to bisection
     Possible cause: smearing is larger than the electronic band-gap.

     negative rho (up, down):  5.346E-01 0.000E+00

     total cpu time spent up to now is     1763.0 secs

     WARNING: integrated charge=    23.99111571, expected=    24.00000000

     total energy              =    -186.60036713 Ry
     estimated scf accuracy    <       0.00011628 Ry

     iteration # 42     ecut=    35.00 Ry     beta= 0.35
     Davidson diagonalization with overlap
     ethr =  5.36E-09,  avg # of iterations =  2.2
     Minimization algorithm failed to find Fermi energy: reverting to bisection
     Possible cause: smearing is larger than the electronic band-gap.

     negative rho (up, down):  5.345E-01 0.000E+00

     total cpu time spent up to now is     1767.4 secs

     WARNING: integrated charge=    23.99111959, expected=    24.00000000

     total energy              =    -186.60036877 Ry
     estimated scf accuracy    <       0.00012715 Ry

     iteration # 43     ecut=    35.00 Ry     beta= 0.35
     Davidson diagonalization with overlap
     ethr =  5.36E-09,  avg # of iterations =  1.0
     Minimization algorithm failed to find Fermi energy: reverting to bisection
     Possible cause: smearing is larger than the electronic band-gap.

     negative rho (up, down):  5.345E-01 0.000E+00

     total cpu time spent up to now is     1771.0 secs

     WARNING: integrated charge=    23.99067026, expected=    24.00000000

     total energy              =    -186.60037207 Ry
     estimated scf accuracy    <       0.00012900 Ry

     iteration # 44     ecut=    35.00 Ry     beta= 0.35
     Davidson diagonalization with overlap
     ethr =  5.36E-09,  avg # of iterations =  2.0

     negative rho (up, down):  5.360E-01 0.000E+00

     total cpu time spent up to now is     1775.3 secs

     WARNING: integrated charge=    23.99043058, expected=    24.00000000

     total energy              =    -186.59608973 Ry
     estimated scf accuracy    <       0.00000101 Ry

     iteration # 45     ecut=    35.00 Ry     beta= 0.35
     Davidson diagonalization with overlap
     ethr =  4.20E-09,  avg # of iterations =  5.0
     Minimization algorithm failed to find Fermi energy: reverting to bisection
     Possible cause: smearing is larger than the electronic band-gap.

     negative rho (up, down):  5.357E-01 0.000E+00

     total cpu time spent up to now is     1781.9 secs

     WARNING: integrated charge=    23.99018366, expected=    24.00000000

     total energy              =    -186.60036609 Ry
     estimated scf accuracy    <       0.00014990 Ry

     iteration # 46     ecut=    35.00 Ry     beta= 0.35
     Davidson diagonalization with overlap
     ethr =  4.20E-09,  avg # of iterations =  2.8
     Minimization algorithm failed to find Fermi energy: reverting to bisection
     Possible cause: smearing is larger than the electronic band-gap.

     negative rho (up, down):  5.354E-01 0.000E+00

     total cpu time spent up to now is     1787.0 secs

     WARNING: integrated charge=    23.99027594, expected=    24.00000000

     total energy              =    -186.60036759 Ry
     estimated scf accuracy    <       0.00016427 Ry

     iteration # 47     ecut=    35.00 Ry     beta= 0.35
     Davidson diagonalization with overlap
     ethr =  4.20E-09,  avg # of iterations =  2.0
     Minimization algorithm failed to find Fermi energy: reverting to bisection
     Possible cause: smearing is larger than the electronic band-gap.

     negative rho (up, down):  5.352E-01 0.000E+00

     total cpu time spent up to now is     1791.3 secs

     WARNING: integrated charge=    23.99031647, expected=    24.00000000

     total energy              =    -186.60036914 Ry
     estimated scf accuracy    <       0.00015939 Ry

     iteration # 48     ecut=    35.00 Ry     beta= 0.35
     Davidson diagonalization with overlap
     ethr =  4.20E-09,  avg # of iterations =  1.0
     Minimization algorithm failed to find Fermi energy: reverting to bisection
     Possible cause: smearing is larger than the electronic band-gap.

     negative rho (up, down):  5.350E-01 0.000E+00

     total cpu time spent up to now is     1794.9 secs

     WARNING: integrated charge=    23.99031141, expected=    24.00000000

     total energy              =    -186.60037080 Ry
     estimated scf accuracy    <       0.00015822 Ry

     iteration # 49     ecut=    35.00 Ry     beta= 0.35
     Davidson diagonalization with overlap
     ethr =  4.20E-09,  avg # of iterations =  1.0
     Minimization algorithm failed to find Fermi energy: reverting to bisection
     Possible cause: smearing is larger than the electronic band-gap.

     negative rho (up, down):  5.349E-01 0.000E+00

     total cpu time spent up to now is     1798.4 secs

     WARNING: integrated charge=    23.99023822, expected=    24.00000000

     total energy              =    -186.60037181 Ry
     estimated scf accuracy    <       0.00015927 Ry

     iteration # 50     ecut=    35.00 Ry     beta= 0.35
     Davidson diagonalization with overlap
     ethr =  4.20E-09,  avg # of iterations =  1.0

     negative rho (up, down):  5.364E-01 0.000E+00

     total cpu time spent up to now is     1801.7 secs

     WARNING: integrated charge=    23.99004675, expected=    24.00000000

     total energy              =    -186.59606054 Ry
     estimated scf accuracy    <       0.00000010 Ry

     iteration # 51     ecut=    35.00 Ry     beta= 0.35
     Davidson diagonalization with overlap
     ethr =  4.19E-10,  avg # of iterations =  6.2
     Minimization algorithm failed to find Fermi energy: reverting to bisection
[...]

     total cpu time spent up to now is     6271.2 secs

     total energy              =    -186.70051219 Ry
     estimated scf accuracy    <          1.2E-09 Ry

     iteration # 27     ecut=    35.00 Ry     beta= 0.35
     Davidson diagonalization with overlap
     ethr =  5.14E-12,  avg # of iterations =  2.5

     negative rho (up, down):  5.864E-01 0.000E+00

     total cpu time spent up to now is     6277.1 secs

     End of self-consistent calculation

          k = 0.0000 0.0000 0.0000 (  5393 PWs)   bands (ev):

   -69.5014 -43.7905 -43.7905 -42.3284 -21.2839 -17.2642 -10.0674  -9.3285
    -9.3285  -6.5020  -6.4735  -6.4735  -5.1270  -3.8597  -3.4197  -3.4197

          k = 0.0000 0.2887 0.0000 (  5444 PWs)   bands (ev):

   -69.5010 -43.8043 -43.7952 -42.3264 -21.0648 -17.1162 -10.3563  -9.8016
    -9.1190  -7.4082  -6.9242  -6.2027  -4.5618  -4.3504  -4.1034  -3.6921

          k = 0.0000-0.5774 0.0000 (  5458 PWs)   bands (ev):

   -69.5005 -43.8143 -43.7987 -42.3242 -20.8322 -16.9492 -11.1040  -9.4447
    -8.8927  -8.2067  -7.2327  -6.3305  -5.3617  -4.7095  -4.0633  -2.7560

          k = 0.2500 0.4330 0.0000 (  5425 PWs)   bands (ev):

   -69.5004 -43.8073 -43.7975 -42.3239 -20.8350 -16.9497 -10.7216  -9.5873
    -9.3791  -8.0118  -7.5130  -6.0885  -5.5207  -4.4764  -4.1828  -3.0450

     the Fermi energy is    -5.8646 ev

!    total energy              =    -186.70051258 Ry
     estimated scf accuracy    <          3.7E-10 Ry
     smearing contrib. (-TS)   =       0.00280154 Ry
     internal energy E=F+TS    =    -186.70331412 Ry

     The total energy is F=E-TS. E is the sum of the following terms:
     one-electron contribution =   -1134.30111091 Ry
     hartree contribution      =     563.83254682 Ry
     xc contribution           =     -32.70020192 Ry
     ewald contribution        =     416.46545189 Ry

     convergence has been achieved in  27 iterations

     negative rho (up, down):  5.864E-01 0.000E+00

     Forces acting on atoms (cartesian axes, Ry/au):

     atom    1 type  3   force =     0.00000000   -0.00000000   -0.01508321
     atom    2 type  2   force =     0.00000000    0.00000000    0.00833409
     atom    3 type  1   force =     0.00000000   -0.00000000    0.00674912

     Total force =     0.018507     Total SCF correction =     0.000019


     Computing stress (Cartesian axis) and pressure


     negative rho (up, down):  5.864E-01 0.000E+00
          total   stress  (Ry/bohr**3)                   (kbar)     P=      -37.90
  -0.00031483   0.00000000   0.00000000          -46.31        0.00        0.00
   0.00000000  -0.00031483   0.00000000            0.00      -46.31        0.00
   0.00000000   0.00000000  -0.00014316            0.00        0.00      -21.06

     Energy error            =      3.3E-05 Ry
     Gradient error          =      1.5E-02 Ry/Bohr

     number of scf cycles    =  48
     number of bfgs steps    =  14

     energy             old  =    -186.7005454885 Ry
     energy             new  =    -186.7005125769 Ry

     CASE: energy            _new > energy            _old

     new trust radius        =       0.0002642205 bohr
     new conv_thr            =       0.0000000010 Ry


ATOMIC_POSITIONS (angstrom)
V               -0.0000000000       -0.0000000000       -0.2040859868
Se               1.9223227000        1.1098535300        1.1226856712
N                1.9223227000        1.1098535300       -0.9185996844



     Writing config-only to output data dir ./tmp/candidate_03_VNSe.save/ :
     XML data file
     NEW-OLD atomic charge density approx. for the potential

     Check: negative core charge=   -0.000005

     negative rho (up, down):  5.863E-01 0.000E+00

     total cpu time spent up to now is     6283.6 secs

     per-process dynamical memory:   132.0 Mb

     Self-consistent Calculation

     iteration #  1     ecut=    35.00 Ry     beta= 0.35
     Davidson diagonalization with overlap
     ethr =  1.00E-06,  avg # of iterations =  3.8

     Threshold (ethr) on eigenvalues was too large:
     Diagonalizing with lowered threshold

     Davidson diagonalization with overlap
     ethr =  1.20E-08,  avg # of iterations =  3.2

     negative rho (up, down):  5.868E-01 0.000E+00

     total cpu time spent up to now is     6293.6 secs

     total energy              =    -186.70048146 Ry
     estimated scf accuracy    <       0.00000267 Ry

     iteration #  2     ecut=    35.00 Ry     beta= 0.35
     Davidson diagonalization with overlap
     ethr =  1.11E-08,  avg # of iterations =  5.0

     negative rho (up, down):  5.862E-01 0.000E+00

     total cpu time spent up to now is     6301.0 secs

     total energy              =    -186.70050709 Ry
     estimated scf accuracy    <       0.00000324 Ry

     iteration #  3     ecut=    35.00 Ry     beta= 0.35
     Davidson diagonalization with overlap
     ethr =  1.11E-08,  avg # of iterations =  4.0

     negative rho (up, down):  5.855E-01 0.000E+00

     total cpu time spent up to now is     6312.2 secs

     total energy              =    -186.70052240 Ry
     estimated scf accuracy    <       0.00000219 Ry

     iteration #  4     ecut=    35.00 Ry     beta= 0.35
     Davidson diagonalization with overlap
     ethr =  9.13E-09,  avg # of iterations =  2.0

     negative rho (up, down):  5.851E-01 0.000E+00

     total cpu time spent up to now is     6316.5 secs

     total energy              =    -186.70053175 Ry
     estimated scf accuracy    <       0.00000154 Ry

     iteration #  5     ecut=    35.00 Ry     beta= 0.35
     Davidson diagonalization with overlap
     ethr =  6.42E-09,  avg # of iterations =  2.0

     negative rho (up, down):  5.848E-01 0.000E+00

     total cpu time spent up to now is     6321.0 secs

     total energy              =    -186.70053457 Ry
     estimated scf accuracy    <       0.00000053 Ry

     iteration #  6     ecut=    35.00 Ry     beta= 0.35
     Davidson diagonalization with overlap
     ethr =  2.22E-09,  avg # of iterations =  3.5

     negative rho (up, down):  5.847E-01 0.000E+00

     total cpu time spent up to now is     6326.2 secs

     total energy              =    -186.70053704 Ry
     estimated scf accuracy    <       0.00000008 Ry

     iteration #  7     ecut=    35.00 Ry     beta= 0.35
     Davidson diagonalization with overlap
     ethr =  3.51E-10,  avg # of iterations =  4.0

     negative rho (up, down):  5.846E-01 0.000E+00

     total cpu time spent up to now is     6332.5 secs

     total energy              =    -186.70053931 Ry
     estimated scf accuracy    <       0.00000002 Ry

     iteration #  8     ecut=    35.00 Ry     beta= 0.35
     Davidson diagonalization with overlap
     ethr =  9.04E-11,  avg # of iterations =  4.2

     negative rho (up, down):  5.845E-01 0.000E+00

     total cpu time spent up to now is     6339.1 secs

     total energy              =    -186.70054123 Ry
     estimated scf accuracy    <          7.3E-09 Ry

     iteration #  9     ecut=    35.00 Ry     beta= 0.35
     Davidson diagonalization with overlap
     ethr =  3.06E-11,  avg # of iterations =  3.8

     negative rho (up, down):  5.844E-01 0.000E+00

     total cpu time spent up to now is     6344.6 secs

     total energy              =    -186.70054250 Ry
     estimated scf accuracy    <          5.1E-09 Ry

     iteration # 10     ecut=    35.00 Ry     beta= 0.35
     Davidson diagonalization with overlap
     ethr =  2.13E-11,  avg # of iterations =  2.2

     negative rho (up, down):  5.844E-01 0.000E+00

     total cpu time spent up to now is     6349.1 secs

     total energy              =    -186.70054314 Ry
     estimated scf accuracy    <          3.7E-09 Ry

     iteration # 11     ecut=    35.00 Ry     beta= 0.35
     Davidson diagonalization with overlap
     ethr =  1.55E-11,  avg # of iterations =  4.0

     negative rho (up, down):  5.844E-01 0.000E+00

     total cpu time spent up to now is     6355.6 secs

     total energy              =    -186.70054369 Ry
     estimated scf accuracy    <          2.1E-09 Ry

     iteration # 12     ecut=    35.00 Ry     beta= 0.35
     Davidson diagonalization with overlap
     ethr =  8.88E-12,  avg # of iterations =  4.0

     negative rho (up, down):  5.843E-01 0.000E+00

     total cpu time spent up to now is     6361.6 secs

     End of self-consistent calculation

          k = 0.0000 0.0000 0.0000 (  5393 PWs)   bands (ev):

   -69.4999 -43.7883 -43.7883 -42.3284 -21.2815 -17.2616 -10.0621  -9.3261
    -9.3261  -6.4852  -6.4702  -6.4702  -5.1238  -3.8552  -3.4166  -3.4166

          k = 0.0000 0.2887 0.0000 (  5444 PWs)   bands (ev):

   -69.4995 -43.8021 -43.7930 -42.3263 -21.0627 -17.1135 -10.3512  -9.7973
    -9.1165  -7.4042  -6.9210  -6.1882  -4.5575  -4.3463  -4.0993  -3.6897

          k = 0.0000-0.5774 0.0000 (  5458 PWs)   bands (ev):

   -69.4990 -43.8121 -43.7965 -42.3241 -20.8304 -16.9463 -11.0979  -9.4424
    -8.8900  -8.2013  -7.2298  -6.3158  -5.3574  -4.7052  -4.0597  -2.7542

          k = 0.2500 0.4330 0.0000 (  5425 PWs)   bands (ev):

   -69.4989 -43.8051 -43.7953 -42.3238 -20.8332 -16.9469 -10.7157  -9.5831
    -9.3768  -8.0078  -7.5084  -6.0761  -5.5153  -4.4725  -4.1795  -3.0431

     the Fermi energy is    -5.8511 ev

!    total energy              =    -186.70054473 Ry
     estimated scf accuracy    <          1.4E-10 Ry
     smearing contrib. (-TS)   =       0.00283162 Ry
     internal energy E=F+TS    =    -186.70337636 Ry

     The total energy is F=E-TS. E is the sum of the following terms:
     one-electron contribution =   -1134.28698578 Ry
     hartree contribution      =     563.82567979 Ry
     xc contribution           =     -32.69633892 Ry
     ewald contribution        =     416.45426855 Ry

     convergence has been achieved in  12 iterations

     negative rho (up, down):  5.843E-01 0.000E+00

     Forces acting on atoms (cartesian axes, Ry/au):

     atom    1 type  3   force =     0.00000000    0.00000000    0.00416707
     atom    2 type  2   force =     0.00000000   -0.00000000   -0.00156066
     atom    3 type  1   force =     0.00000000   -0.00000000   -0.00260641

     Total force =     0.005157     Total SCF correction =     0.000031


     Computing stress (Cartesian axis) and pressure


     negative rho (up, down):  5.843E-01 0.000E+00
          total   stress  (Ry/bohr**3)                   (kbar)     P=      -37.86
  -0.00031617   0.00000000   0.00000000          -46.51        0.00        0.00
   0.00000000  -0.00031617  -0.00000000            0.00      -46.51       -0.00
   0.00000000  -0.00000000  -0.00013987            0.00       -0.00      -20.57

     Energy error            =      7.5E-07 Ry
     Gradient error          =      4.2E-03 Ry/Bohr

     number of scf cycles    =  49
     number of bfgs steps    =  14

     energy             old  =    -186.7005454885 Ry
     energy             new  =    -186.7005447350 Ry

     CASE: energy            _new > energy            _old

     new trust radius        =       0.0001052521 bohr
     new conv_thr            =       0.0000000010 Ry


ATOMIC_POSITIONS (angstrom)
V               -0.0000000000       -0.0000000000       -0.2041701092
Se               1.9223227000        1.1098535300        1.1227224118
N                1.9223227000        1.1098535300       -0.9185523026



     Writing config-only to output data dir ./tmp/candidate_03_VNSe.save/ :
     XML data file
     NEW-OLD atomic charge density approx. for the potential

     Check: negative core charge=   -0.000005

     negative rho (up, down):  5.843E-01 0.000E+00

     total cpu time spent up to now is     6368.1 secs

     per-process dynamical memory:   132.0 Mb

     Self-consistent Calculation

     iteration #  1     ecut=    35.00 Ry     beta= 0.35
     Davidson diagonalization with overlap
     ethr =  1.00E-06,  avg # of iterations =  2.0

     Threshold (ethr) on eigenvalues was too large:
     Diagonalizing with lowered threshold

     Davidson diagonalization with overlap
     ethr =  3.13E-10,  avg # of iterations =  5.0

     negative rho (up, down):  5.843E-01 0.000E+00

     total cpu time spent up to now is     6379.1 secs

     total energy              =    -186.70054193 Ry
     estimated scf accuracy    <       0.00000004 Ry

     iteration #  2     ecut=    35.00 Ry     beta= 0.35
     Davidson diagonalization with overlap
     ethr =  1.65E-10,  avg # of iterations =  5.0

     negative rho (up, down):  5.843E-01 0.000E+00

     total cpu time spent up to now is     6385.6 secs

     total energy              =    -186.70054277 Ry
     estimated scf accuracy    <       0.00000004 Ry

     iteration #  3     ecut=    35.00 Ry     beta= 0.35
     Davidson diagonalization with overlap
     ethr =  1.49E-10,  avg # of iterations =  4.0

     negative rho (up, down):  5.842E-01 0.000E+00

     total cpu time spent up to now is     6391.8 secs

     total energy              =    -186.70054366 Ry
     estimated scf accuracy    <       0.00000003 Ry

     iteration #  4     ecut=    35.00 Ry     beta= 0.35
     Davidson diagonalization with overlap
     ethr =  1.37E-10,  avg # of iterations =  2.0

     negative rho (up, down):  5.842E-01 0.000E+00

     total cpu time spent up to now is     6395.9 secs

     total energy              =    -186.70054406 Ry
     estimated scf accuracy    <       0.00000002 Ry

     iteration #  5     ecut=    35.00 Ry     beta= 0.35
     Davidson diagonalization with overlap
     ethr =  7.19E-11,  avg # of iterations =  2.0

     negative rho (up, down):  5.842E-01 0.000E+00

     total cpu time spent up to now is     6400.1 secs

     total energy              =    -186.70054432 Ry
     estimated scf accuracy    <          1.9E-09 Ry

     iteration #  6     ecut=    35.00 Ry     beta= 0.35
     Davidson diagonalization with overlap
     ethr =  7.88E-12,  avg # of iterations =  4.8

     negative rho (up, down):  5.841E-01 0.000E+00

     total cpu time spent up to now is     6410.7 secs

     End of self-consistent calculation

          k = 0.0000 0.0000 0.0000 (  5393 PWs)   bands (ev):

   -69.4995 -43.7878 -43.7878 -42.3282 -21.2811 -17.2611 -10.0613  -9.3257
    -9.3257  -6.4833  -6.4697  -6.4697  -5.1233  -3.8546  -3.4161  -3.4161

          k = 0.0000 0.2887 0.0000 (  5444 PWs)   bands (ev):

   -69.4991 -43.8016 -43.7926 -42.3262 -21.0623 -17.1130 -10.3505  -9.7966
    -9.1160  -7.4036  -6.9205  -6.1865  -4.5569  -4.3457  -4.0987  -3.6893

          k = 0.0000-0.5774 0.0000 (  5458 PWs)   bands (ev):

   -69.4986 -43.8117 -43.7961 -42.3240 -20.8300 -16.9459 -11.0971  -9.4421
    -8.8895  -8.2006  -7.2293  -6.3141  -5.3567  -4.7045  -4.0591  -2.7539

          k = 0.2500 0.4330 0.0000 (  5425 PWs)   bands (ev):

   -69.4985 -43.8047 -43.7949 -42.3237 -20.8328 -16.9464 -10.7148  -9.5824
    -9.3764  -8.0073  -7.5078  -6.0746  -5.5146  -4.4719  -4.1790  -3.0428

     the Fermi energy is    -5.8495 ev

!    total energy              =    -186.70054522 Ry
     estimated scf accuracy    <          4.0E-10 Ry
     smearing contrib. (-TS)   =       0.00283435 Ry
     internal energy E=F+TS    =    -186.70337958 Ry

     The total energy is F=E-TS. E is the sum of the following terms:
     one-electron contribution =   -1134.28537169 Ry
     hartree contribution      =     563.82506498 Ry
     xc contribution           =     -32.69594484 Ry
     ewald contribution        =     416.45287197 Ry

     convergence has been achieved in   6 iterations

     negative rho (up, down):  5.841E-01 0.000E+00

     Forces acting on atoms (cartesian axes, Ry/au):

     atom    1 type  3   force =     0.00000000   -0.00000000    0.00631219
     atom    2 type  2   force =     0.00000000   -0.00000000   -0.00266797
     atom    3 type  1   force =     0.00000000   -0.00000000   -0.00364422

     Total force =     0.007762     Total SCF correction =     0.000163


     Computing stress (Cartesian axis) and pressure


     negative rho (up, down):  5.841E-01 0.000E+00
          total   stress  (Ry/bohr**3)                   (kbar)     P=      -37.85
  -0.00031622   0.00000000   0.00000000          -46.52        0.00        0.00
   0.00000000  -0.00031622   0.00000000            0.00      -46.52        0.00
   0.00000000   0.00000000  -0.00013939            0.00        0.00      -20.50

     Energy error            =      2.6E-07 Ry
     Gradient error          =      6.3E-03 Ry/Bohr

     number of scf cycles    =  50
     number of bfgs steps    =  14

     energy             old  =    -186.7005454885 Ry
     energy             new  =    -186.7005452242 Ry

     CASE: energy            _new > energy            _old

     new trust radius        =       0.0000429709 bohr

     trust_radius < trust_radius_min

     resetting bfgs history


     The maximum number of steps has been reached.

     End of BFGS Geometry Optimization

ATOMIC_POSITIONS (angstrom)
V               -0.0000000000       -0.0000000000       -0.2003040784
Se               1.9223227000        1.1098535300        1.1210339179
N                1.9223227000        1.1098535300       -0.9207298395



     Writing config-only to output data dir ./tmp/candidate_03_VNSe.save/ :
     XML data file
     NEW-OLD atomic charge density approx. for the potential

     Check: negative core charge=   -0.000005

     negative rho (up, down):  5.843E-01 0.000E+00

     Writing all to output data dir ./tmp/candidate_03_VNSe.save/ :
     XML data file, charge density, pseudopotentials, collected wavefunctions

     init_run     :     97.71s CPU      7.86s WALL (       1 calls)
     electrons    :  87775.54s CPU   6087.10s WALL (      50 calls)
     update_pot   :     85.89s CPU      5.47s WALL (      50 calls)
     forces       :    366.50s CPU     45.35s WALL (      50 calls)
     stress       :   1134.61s CPU    245.80s WALL (      50 calls)

     Called by init_run:
     wfcinit      :     83.14s CPU      5.30s WALL (       1 calls)
     potinit      :      6.40s CPU      0.51s WALL (       1 calls)
     hinit0       :      6.88s CPU      1.33s WALL (       1 calls)

     Called by electrons:
     c_bands      :  75337.20s CPU   4727.58s WALL (     891 calls)
     sum_band     :  10443.25s CPU    867.74s WALL (     891 calls)
     v_of_rho     :    700.38s CPU     43.93s WALL (     919 calls)
     newd         :   1158.88s CPU    458.49s WALL (     919 calls)
     mix_rho      :    146.58s CPU     10.03s WALL (     891 calls)

     Called by c_bands:
     init_us_2    :    149.50s CPU     21.99s WALL (    7532 calls)
     cegterg      :  74895.43s CPU   4693.09s WALL (    3566 calls)

     Called by *egterg:
     cdiaghg      :    443.38s CPU     28.95s WALL (   19474 calls)
     h_psi        :  52781.60s CPU   3311.61s WALL (   19766 calls)
     s_psi        :   2678.55s CPU    168.35s WALL (   19766 calls)
     g_psi        :     27.53s CPU      5.07s WALL (   16196 calls)

     Called by h_psi:
     h_psi:calbec :   1277.04s CPU     67.64s WALL (   19766 calls)
     vloc_psi     :  44723.09s CPU   2838.14s WALL (   19766 calls)
                                        0.00s GPU  (   19766 calls)
     add_vuspsi   :   2933.65s CPU    169.06s WALL (   19766 calls)

     General routines
     calbec       :   1531.66s CPU     82.99s WALL (   26730 calls)
     fft          :    397.88s CPU     26.73s WALL (   13170 calls)
     ffts         :     87.66s CPU      5.00s WALL (    1810 calls)
     fftw         :  44664.76s CPU   2838.18s WALL (  391708 calls)
     interpolate  :     62.11s CPU      3.95s WALL (     919 calls)
     davcio       :      0.06s CPU      0.00s WALL (       4 calls)

     Parallel routines

     PWSCF        :   1d 0h52m CPU      1h46m WALL


   This run was terminated on:  20:46:10  10May2026            

=------------------------------------------------------------------------------=
   JOB DONE.
=------------------------------------------------------------------------------=
