
     Program PWSCF v.7.5 starts on 10May2026 at 14:56:25 

     This program is part of the open-source Quantum ESPRESSO suite
     for quantum simulation of materials; please cite
         "P. Giannozzi et al., J. Phys.:Condens. Matter 21 395502 (2009);
         "P. Giannozzi et al., J. Phys.:Condens. Matter 29 465901 (2017);
         "P. Giannozzi et al., J. Chem. Phys. 152 154105 (2020);
          URL http://www.quantum-espresso.org", 
     in publications or presentations arising from this work. More details at
     http://www.quantum-espresso.org/quote

     Parallel version (MPI & OpenMP), running on      16 processor cores
     Number of MPI processes:                 1
     Threads/MPI process:                    16

     MPI processes distributed on     1 nodes
     7014 MiB available memory on the printing compute node when the environment starts

     Reading input from candidate_01_VCSe/03_h_ads_top_relaxed_stable.in

     Current dimensions of program PWSCF are:
     Max number of different atomic species (ntypx) = 10
     Max number of k-points (npk) =  40000
     Max angular momentum in pseudopotentials (lmaxx) =  4
     file V.pbe-spnl-rrkjus_psl.1.0.0.UPF: wavefunction(s)  3P 3D renormalized
     Message from routine setup:
     using ibrav=0 with symmetry is DISCOURAGED, use correct ibrav instead

     Subspace diagonalization in iterative solution of the eigenvalue problem:
     a serial algorithm will be used


     G-vector sticks info
     --------------------
     sticks:   dense  smooth     PW     G-vecs:    dense   smooth      PW
     Sum        1969     661    199               291665    56169    8739

     Using Slab Decomposition



     bravais-lattice index     =            0
     lattice parameter (alat)  =       8.2536  a.u.
     unit-cell volume          =    2006.7175 (a.u.)^3
     number of atoms/cell      =            4
     number of atomic types    =            4
     number of electrons       =        24.00
     number of Kohn-Sham states=           16
     kinetic-energy cutoff     =      35.0000  Ry
     charge density cutoff     =     420.0000  Ry
     scf convergence threshold =      1.0E-06
     mixing beta               =       0.1000
     number of iterations used =            8  local-TF  mixing
     energy convergence thresh.=      1.0E-04
     force convergence thresh. =      1.0E-03
     Exchange-correlation= PBE
                           (   1   4   3   4   0   0   0)
     nstep                     =           50


     celldm(1)=   8.253575  celldm(2)=   0.000000  celldm(3)=   0.000000
     celldm(4)=   0.000000  celldm(5)=   0.000000  celldm(6)=   0.000000

     crystal axes: (cart. coord. in units of alat)
               a(1) = (   1.000000   0.000000   0.000000 )  
               a(2) = (  -0.500000   0.866025   0.000000 )  
               a(3) = (   0.000000   0.000000   4.121253 )  

     reciprocal axes: (cart. coord. in units 2 pi/alat)
               b(1) = (  1.000000  0.577350 -0.000000 )  
               b(2) = (  0.000000  1.154701  0.000000 )  
               b(3) = (  0.000000 -0.000000  0.242645 )  


     PseudoPot. # 1 for H  read from file:
     ./pseudos/H.pbe-rrkjus_psl.1.0.0.UPF
     MD5 check sum: 3f4114867bd07edc7f1424d066fc1888
     Pseudo is Ultrasoft, Zval =  1.0
     Generated using &quot;atomic&quot; code by A. Dal Corso  v.6.3MaX
     Using radial grid of  929 points,  2 beta functions with: 
                l(1) =   0
                l(2) =   0
     Q(r) pseudized with 0 coefficients 


     PseudoPot. # 2 for C  read from file:
     ./pseudos/C.pbe-n-rrkjus_psl.1.0.0.UPF
     MD5 check sum: 1fdd950c42eb37d8afe3dd2f8d12311e
     Pseudo is Ultrasoft + core correction, Zval =  4.0
     Generated using &quot;atomic&quot; code by A. Dal Corso  v.6.3MaX
     Using radial grid of 1073 points,  4 beta functions with: 
                l(1) =   0
                l(2) =   0
                l(3) =   1
                l(4) =   1
     Q(r) pseudized with 0 coefficients 


     PseudoPot. # 3 for Se read from file:
     ./pseudos/Se.pbe-n-rrkjus_psl.1.0.0.UPF
     MD5 check sum: 8e2a6847b5cb9faee9497ebb573e71ea
     Pseudo is Ultrasoft + core correction, Zval =  6.0
     Generated using &quot;atomic&quot; code by A. Dal Corso  v.6.3
     Using radial grid of 1211 points,  4 beta functions with: 
                l(1) =   0
                l(2) =   0
                l(3) =   1
                l(4) =   1
     Q(r) pseudized with 0 coefficients 


     PseudoPot. # 4 for V  read from file:
     ./pseudos/V.pbe-spnl-rrkjus_psl.1.0.0.UPF
     MD5 check sum: 79b3eb63147daf0b665d9f1bcc691206
     Pseudo is Ultrasoft + core correction, Zval = 13.0
     Generated using &quot;atomic&quot; code by A. Dal Corso  v.6.2.2
     Using radial grid of 1181 points,  6 beta functions with: 
                l(1) =   0
                l(2) =   0
                l(3) =   1
                l(4) =   1
                l(5) =   2
                l(6) =   2
     Q(r) pseudized with 0 coefficients 


     atomic species   valence    mass     pseudopotential
     H                 1.00     1.00800     H ( 1.00)
     C                 4.00    12.01100     C ( 1.00)
     Se                6.00    78.97100     Se( 1.00)
     V                13.00    50.94200     V ( 1.00)

      6 Sym. Ops. (no inversion) found



   Cartesian axes

     site n.     atom                  positions (alat units)
         1        V      tau(   1) = (   0.0000000   0.0000000   0.0043025  )
         2        C      tau(   2) = (   0.5000000   0.2886751   0.2240222  )
         3        Se     tau(   3) = (   0.5000000   0.2886751  -0.2283247  )
         4        H      tau(   4) = (   0.5000000   0.2886751   0.4758765  )

     number of k points=     4  Marzari-Vanderbilt smearing, width (Ry)=  0.0100
                       cart. coord. in units 2pi/alat
        k(    1) = (   0.0000000   0.0000000   0.0000000), wk =   0.1250000
        k(    2) = (   0.0000000   0.2886751   0.0000000), wk =   0.7500000
        k(    3) = (   0.0000000  -0.5773503   0.0000000), wk =   0.3750000
        k(    4) = (   0.2500000   0.4330127   0.0000000), wk =   0.7500000

     Dense  grid:   291665 G-vectors     FFT dimensions: (  54,  54, 225)

     Smooth grid:    56169 G-vectors     FFT dimensions: (  32,  32, 135)

     Estimated max dynamical RAM per process >       1.08 GB
 ----2D----2D----2D----2D----2D----2D----2D----2D----2D----2D----2D----2D
  The code is running with the 2D cutoff
  Please refer to:
  Sohier, T., Calandra, M., & Mauri, F. (2017), 
  Density functional perturbation theory for gated two-dimensional heterostructures:
  Theoretical developments and application to flexural phonons in graphene.
  Physical Review B, 96(7), 75448. https://doi.org/10.1103/PhysRevB.96.075448
 ----2D----2D----2D----2D----2D----2D----2D----2D----2D----2D----2D----2D

     Check: negative core charge=   -0.000002

     Initial potential from superposition of free atoms

     starting charge      23.9990, renormalised to      24.0000

     negative rho (up, down):  2.982E-04 0.000E+00
     Starting wfcs are   19 randomized atomic wfcs

     total cpu time spent up to now is       20.6 secs

     per-process dynamical memory:   189.9 Mb

     Self-consistent Calculation

     iteration #  1     ecut=    35.00 Ry     beta= 0.10
     Davidson diagonalization with overlap
     ethr =  1.00E-02,  avg # of iterations =  2.0

     negative rho (up, down):  5.349E-05 0.000E+00

     total cpu time spent up to now is       31.3 secs

     total energy              =    -179.60862414 Ry
     estimated scf accuracy    <       0.94522350 Ry

     iteration #  2     ecut=    35.00 Ry     beta= 0.10
     Davidson diagonalization with overlap
     ethr =  3.94E-03,  avg # of iterations =  1.0

     negative rho (up, down):  7.227E-04 0.000E+00

     total cpu time spent up to now is       42.2 secs

     total energy              =    -179.47057512 Ry
     estimated scf accuracy    <       0.68708331 Ry

     iteration #  3     ecut=    35.00 Ry     beta= 0.10
     Davidson diagonalization with overlap
     ethr =  2.86E-03,  avg # of iterations =  1.8

     negative rho (up, down):  1.804E-04 0.000E+00

     total cpu time spent up to now is       51.4 secs

     total energy              =    -179.53669032 Ry
     estimated scf accuracy    <       0.25531249 Ry

     iteration #  4     ecut=    35.00 Ry     beta= 0.10
     Davidson diagonalization with overlap
     ethr =  1.06E-03,  avg # of iterations =  1.0

     negative rho (up, down):  1.014E-04 0.000E+00

     total cpu time spent up to now is       60.6 secs

     total energy              =    -179.52751271 Ry
     estimated scf accuracy    <       0.13334904 Ry

     iteration #  5     ecut=    35.00 Ry     beta= 0.10
     Davidson diagonalization with overlap
     ethr =  5.56E-04,  avg # of iterations =  1.8

     negative rho (up, down):  1.908E-04 0.000E+00

     total cpu time spent up to now is       73.4 secs

     total energy              =    -179.51704703 Ry
     estimated scf accuracy    <       0.12401265 Ry

     iteration #  6     ecut=    35.00 Ry     beta= 0.10
     Davidson diagonalization with overlap
     ethr =  5.17E-04,  avg # of iterations =  2.0

     negative rho (up, down):  4.370E-05 0.000E+00

     total cpu time spent up to now is       81.5 secs

     total energy              =    -179.52246426 Ry
     estimated scf accuracy    <       0.02418401 Ry

     iteration #  7     ecut=    35.00 Ry     beta= 0.10
     Davidson diagonalization with overlap
     ethr =  1.01E-04,  avg # of iterations =  2.0

     negative rho (up, down):  5.234E-05 0.000E+00

     total cpu time spent up to now is       89.8 secs

     total energy              =    -179.52145280 Ry
     estimated scf accuracy    <       0.02208019 Ry

     iteration #  8     ecut=    35.00 Ry     beta= 0.10
     Davidson diagonalization with overlap
     ethr =  9.20E-05,  avg # of iterations =  1.5

     negative rho (up, down):  4.214E-05 0.000E+00

     total cpu time spent up to now is      101.4 secs

     total energy              =    -179.52424655 Ry
     estimated scf accuracy    <       0.00906291 Ry

     iteration #  9     ecut=    35.00 Ry     beta= 0.10
     Davidson diagonalization with overlap
     ethr =  3.78E-05,  avg # of iterations =  1.8

     negative rho (up, down):  1.367E-05 0.000E+00

     total cpu time spent up to now is      109.3 secs

     total energy              =    -179.52261634 Ry
     estimated scf accuracy    <       0.01854858 Ry

     iteration # 10     ecut=    35.00 Ry     beta= 0.10
     Davidson diagonalization with overlap
     ethr =  3.78E-05,  avg # of iterations =  1.0

     negative rho (up, down):  4.081E-03 0.000E+00

     total cpu time spent up to now is      116.5 secs

     total energy              =    -179.52045799 Ry
     estimated scf accuracy    <       0.00695548 Ry

     iteration # 11     ecut=    35.00 Ry     beta= 0.10
     Davidson diagonalization with overlap
     ethr =  2.90E-05,  avg # of iterations =  2.0

     negative rho (up, down):  1.995E-04 0.000E+00

     total cpu time spent up to now is      125.7 secs

     total energy              =    -179.52135803 Ry
     estimated scf accuracy    <       0.00502387 Ry

     iteration # 12     ecut=    35.00 Ry     beta= 0.10
     Davidson diagonalization with overlap
     ethr =  2.09E-05,  avg # of iterations =  1.2

     negative rho (up, down):  6.552E-03 0.000E+00

     total cpu time spent up to now is      134.8 secs

     total energy              =    -179.52040633 Ry
     estimated scf accuracy    <       0.00264213 Ry

     iteration # 13     ecut=    35.00 Ry     beta= 0.10
     Davidson diagonalization with overlap
     ethr =  1.10E-05,  avg # of iterations =  2.2

     negative rho (up, down):  9.587E-03 0.000E+00

     total cpu time spent up to now is      143.8 secs

     total energy              =    -179.52054519 Ry
     estimated scf accuracy    <       0.00093751 Ry

     iteration # 14     ecut=    35.00 Ry     beta= 0.10
     Davidson diagonalization with overlap
     ethr =  3.91E-06,  avg # of iterations =  4.0

     negative rho (up, down):  7.836E-03 0.000E+00

     total cpu time spent up to now is      156.2 secs

     total energy              =    -179.52029165 Ry
     estimated scf accuracy    <       0.00072963 Ry

     iteration # 15     ecut=    35.00 Ry     beta= 0.10
     Davidson diagonalization with overlap
     ethr =  3.04E-06,  avg # of iterations =  5.2

     negative rho (up, down):  8.637E-03 0.000E+00

     total cpu time spent up to now is      168.7 secs

     total energy              =    -179.51984887 Ry
     estimated scf accuracy    <       0.00366435 Ry

     iteration # 16     ecut=    35.00 Ry     beta= 0.10
     Davidson diagonalization with overlap
     ethr =  3.04E-06,  avg # of iterations =  4.8

     negative rho (up, down):  7.994E-03 0.000E+00

     total cpu time spent up to now is      179.5 secs

     total energy              =    -179.52037124 Ry
     estimated scf accuracy    <       0.00015097 Ry

     iteration # 17     ecut=    35.00 Ry     beta= 0.10
     Davidson diagonalization with overlap
     ethr =  6.29E-07,  avg # of iterations =  1.8

     negative rho (up, down):  4.401E-03 0.000E+00

     total cpu time spent up to now is      191.3 secs

     total energy              =    -179.52047213 Ry
     estimated scf accuracy    <       0.00008902 Ry

     iteration # 18     ecut=    35.00 Ry     beta= 0.10
     Davidson diagonalization with overlap
     ethr =  3.71E-07,  avg # of iterations =  3.0

     negative rho (up, down):  4.020E-03 0.000E+00

     total cpu time spent up to now is      199.8 secs

     total energy              =    -179.52052543 Ry
     estimated scf accuracy    <       0.00026379 Ry

     iteration # 19     ecut=    35.00 Ry     beta= 0.10
     Davidson diagonalization with overlap
     ethr =  3.71E-07,  avg # of iterations =  1.0

     negative rho (up, down):  3.804E-03 0.000E+00

     total cpu time spent up to now is      208.0 secs

     total energy              =    -179.52056396 Ry
     estimated scf accuracy    <       0.00021179 Ry

     iteration # 20     ecut=    35.00 Ry     beta= 0.10
     Davidson diagonalization with overlap
     ethr =  3.71E-07,  avg # of iterations =  1.0

     negative rho (up, down):  2.920E-03 0.000E+00

     total cpu time spent up to now is      217.8 secs

     total energy              =    -179.52049906 Ry
     estimated scf accuracy    <       0.00024040 Ry

     iteration # 21     ecut=    35.00 Ry     beta= 0.10
     Davidson diagonalization with overlap
     ethr =  3.71E-07,  avg # of iterations =  7.5

     negative rho (up, down):  3.200E-03 0.000E+00

     total cpu time spent up to now is      230.3 secs

     total energy              =    -179.52052607 Ry
     estimated scf accuracy    <       0.00002796 Ry

     iteration # 22     ecut=    35.00 Ry     beta= 0.10
     Davidson diagonalization with overlap
     ethr =  1.16E-07,  avg # of iterations =  2.0

     negative rho (up, down):  2.952E-03 0.000E+00

     total cpu time spent up to now is      237.5 secs

     total energy              =    -179.52053176 Ry
     estimated scf accuracy    <       0.00002209 Ry

     iteration # 23     ecut=    35.00 Ry     beta= 0.10
     Davidson diagonalization with overlap
     ethr =  9.20E-08,  avg # of iterations =  1.0

     negative rho (up, down):  2.060E-03 0.000E+00

     total cpu time spent up to now is      245.3 secs

     total energy              =    -179.52055333 Ry
     estimated scf accuracy    <       0.00001809 Ry

     iteration # 24     ecut=    35.00 Ry     beta= 0.10
     Davidson diagonalization with overlap
     ethr =  7.54E-08,  avg # of iterations =  1.2

     negative rho (up, down):  2.882E-03 0.000E+00

     total cpu time spent up to now is      253.4 secs

     total energy              =    -179.52054503 Ry
     estimated scf accuracy    <       0.00001620 Ry

     iteration # 25     ecut=    35.00 Ry     beta= 0.10
     Davidson diagonalization with overlap
     ethr =  6.75E-08,  avg # of iterations =  2.8

     negative rho (up, down):  2.240E-03 0.000E+00

     total cpu time spent up to now is      262.9 secs

     total energy              =    -179.52059836 Ry
     estimated scf accuracy    <       0.00004094 Ry

     iteration # 26     ecut=    35.00 Ry     beta= 0.10
     Davidson diagonalization with overlap
     ethr =  6.75E-08,  avg # of iterations =  2.0

     negative rho (up, down):  2.214E-03 0.000E+00

     total cpu time spent up to now is      272.2 secs

     total energy              =    -179.52060792 Ry
     estimated scf accuracy    <       0.00007964 Ry

     iteration # 27     ecut=    35.00 Ry     beta= 0.10
     Davidson diagonalization with overlap
     ethr =  6.75E-08,  avg # of iterations =  1.0

     negative rho (up, down):  1.818E-03 0.000E+00

     total cpu time spent up to now is      281.7 secs

     total energy              =    -179.52061962 Ry
     estimated scf accuracy    <       0.00009173 Ry

     iteration # 28     ecut=    35.00 Ry     beta= 0.10
     Davidson diagonalization with overlap
     ethr =  6.75E-08,  avg # of iterations =  1.2

     negative rho (up, down):  1.644E-03 0.000E+00

     total cpu time spent up to now is      289.3 secs

     total energy              =    -179.52061423 Ry
     estimated scf accuracy    <       0.00009991 Ry

     iteration # 29     ecut=    35.00 Ry     beta= 0.10
     Davidson diagonalization with overlap
     ethr =  6.75E-08,  avg # of iterations =  2.0

     negative rho (up, down):  1.222E-03 0.000E+00

     total cpu time spent up to now is      296.6 secs

     total energy              =    -179.52060656 Ry
     estimated scf accuracy    <       0.00004586 Ry

     iteration # 30     ecut=    35.00 Ry     beta= 0.10
     Davidson diagonalization with overlap
     ethr =  6.75E-08,  avg # of iterations =  3.0

     negative rho (up, down):  1.130E-03 0.000E+00

     total cpu time spent up to now is      307.4 secs

     total energy              =    -179.52061477 Ry
     estimated scf accuracy    <       0.00000228 Ry

     iteration # 31     ecut=    35.00 Ry     beta= 0.10
     Davidson diagonalization with overlap
     ethr =  9.49E-09,  avg # of iterations =  3.2

     negative rho (up, down):  1.181E-03 0.000E+00

     total cpu time spent up to now is      317.6 secs

     total energy              =    -179.52061779 Ry
     estimated scf accuracy    <       0.00000428 Ry

     iteration # 32     ecut=    35.00 Ry     beta= 0.10
     Davidson diagonalization with overlap
     ethr =  9.49E-09,  avg # of iterations =  2.0

     negative rho (up, down):  1.233E-03 0.000E+00

     total cpu time spent up to now is      326.4 secs

     total energy              =    -179.52062078 Ry
     estimated scf accuracy    <       0.00000156 Ry

     iteration # 33     ecut=    35.00 Ry     beta= 0.10
     Davidson diagonalization with overlap
     ethr =  6.48E-09,  avg # of iterations =  2.0

     negative rho (up, down):  1.085E-03 0.000E+00

     total cpu time spent up to now is      337.7 secs

     total energy              =    -179.52062402 Ry
     estimated scf accuracy    <       0.00000111 Ry

     iteration # 34     ecut=    35.00 Ry     beta= 0.10
     Davidson diagonalization with overlap
     ethr =  4.64E-09,  avg # of iterations =  3.0

     negative rho (up, down):  9.736E-04 0.000E+00

     total cpu time spent up to now is      349.3 secs

     total energy              =    -179.52062517 Ry
     estimated scf accuracy    <       0.00000251 Ry

     iteration # 35     ecut=    35.00 Ry     beta= 0.10
     Davidson diagonalization with overlap
     ethr =  4.64E-09,  avg # of iterations =  2.0

     negative rho (up, down):  9.114E-04 0.000E+00

     total cpu time spent up to now is      357.0 secs

     total energy              =    -179.52062408 Ry
     estimated scf accuracy    <       0.00000140 Ry

     iteration # 36     ecut=    35.00 Ry     beta= 0.10
     Davidson diagonalization with overlap
     ethr =  4.64E-09,  avg # of iterations =  4.0

     negative rho (up, down):  8.593E-04 0.000E+00

     total cpu time spent up to now is      367.2 secs

     total energy              =    -179.52062407 Ry
     estimated scf accuracy    <       0.00000112 Ry

     iteration # 37     ecut=    35.00 Ry     beta= 0.10
     Davidson diagonalization with overlap
     ethr =  4.64E-09,  avg # of iterations =  2.0

     negative rho (up, down):  7.754E-04 0.000E+00

     total cpu time spent up to now is      380.1 secs

     End of self-consistent calculation

          k = 0.0000 0.0000 0.0000 (  7019 PWs)   bands (ev):

   -68.4071 -42.1933 -42.1933 -42.1121 -18.6727 -14.3033  -9.9474  -7.6563
    -7.6563  -4.4421  -4.4421  -3.3680  -2.5740  -2.3102  -2.3102  -2.1516

          k = 0.0000 0.2887 0.0000 (  7011 PWs)   bands (ev):

   -68.4070 -42.1924 -42.1898 -42.1138 -18.5775 -14.2539  -9.8686  -8.2732
    -7.6118  -4.7140  -4.6558  -3.4259  -3.0788  -2.8604  -2.7475  -1.8848

          k = 0.0000-0.5774 0.0000 (  7022 PWs)   bands (ev):

   -68.4070 -42.1929 -42.1911 -42.1134 -18.4789 -14.2032  -9.7841  -8.7604
    -7.5705  -4.9931  -4.7911  -3.6259  -3.4633  -3.1668  -3.1665  -1.6308

          k = 0.2500 0.4330 0.0000 (  7024 PWs)   bands (ev):

   -68.4070 -42.1937 -42.1914 -42.1123 -18.4795 -14.2032  -9.7837  -8.5331
    -7.8850  -5.1294  -4.5303  -3.7534  -3.4493  -3.3612  -3.0416  -1.6977

     the Fermi energy is    -3.4447 ev

!    total energy              =    -179.52063038 Ry
     estimated scf accuracy    <       0.00000026 Ry
     smearing contrib. (-TS)   =      -0.00291534 Ry
     internal energy E=F+TS    =    -179.51771504 Ry

     The total energy is F=E-TS. E is the sum of the following terms:
     one-electron contribution =    -901.53942022 Ry
     hartree contribution      =     447.93803525 Ry
     xc contribution           =     -31.51116276 Ry
     ewald contribution        =     305.59483269 Ry

     convergence has been achieved in  37 iterations

     negative rho (up, down):  7.754E-04 0.000E+00

     Forces acting on atoms (cartesian axes, Ry/au):

     atom    1 type  4   force =     0.00000000    0.00000000    0.02769408
     atom    2 type  2   force =     0.00000000   -0.00000000   -0.09055292
     atom    3 type  3   force =     0.00000000   -0.00000000    0.08121211
     atom    4 type  1   force =     0.00000000   -0.00000000   -0.01835326

     Total force =     0.126091     Total SCF correction =     0.000565


     Computing stress (Cartesian axis) and pressure


     negative rho (up, down):  7.754E-04 0.000E+00
          total   stress  (Ry/bohr**3)                   (kbar)     P=      -75.26
  -0.00055736   0.00000000   0.00000000          -81.99        0.00        0.00
   0.00000000  -0.00055736  -0.00000000            0.00      -81.99       -0.00
   0.00000000  -0.00000000  -0.00042005            0.00       -0.00      -61.79


     BFGS Geometry Optimization
     Energy error            =      1.6E-02 Ry
     Gradient error          =      9.1E-02 Ry/Bohr

     number of scf cycles    =   1
     number of bfgs steps    =   0

     energy             new  =    -179.5206303786 Ry

     new trust radius        =       0.0905529226 bohr
     new conv_thr            =       0.0000010000 Ry


ATOMIC_POSITIONS (angstrom)
V                0.0000000000        0.0000000000        0.0334467225
C                2.1838020000        1.2608186700        0.9305217381
Se               2.1838020000        1.2608186700       -0.9542563316
H                2.1838020000        1.2608186700        2.0687281521



     Writing config-only to output data dir ./tmp/candidate_01_VCSe_H_relaxed.save/ :
     XML data file
     NEW-OLD atomic charge density approx. for the potential

     Check: negative core charge=   -0.000002

     negative rho (up, down):  8.228E-04 0.000E+00

     total cpu time spent up to now is      399.0 secs

     per-process dynamical memory:   196.9 Mb

     Self-consistent Calculation

     iteration #  1     ecut=    35.00 Ry     beta= 0.10
     Davidson diagonalization with overlap
     ethr =  1.00E-06,  avg # of iterations = 11.5

     negative rho (up, down):  7.872E-04 0.000E+00

     total cpu time spent up to now is      438.0 secs

     total energy              =    -179.53139808 Ry
     estimated scf accuracy    <       0.00473736 Ry

     iteration #  2     ecut=    35.00 Ry     beta= 0.10
     Davidson diagonalization with overlap
     ethr =  1.97E-05,  avg # of iterations =  1.0

     negative rho (up, down):  1.238E-03 0.000E+00

     total cpu time spent up to now is      445.6 secs

     total energy              =    -179.53064898 Ry
     estimated scf accuracy    <       0.00352122 Ry

     iteration #  3     ecut=    35.00 Ry     beta= 0.10
     Davidson diagonalization with overlap
     ethr =  1.47E-05,  avg # of iterations =  1.2

     negative rho (up, down):  2.216E-03 0.000E+00

     total cpu time spent up to now is      454.1 secs

     total energy              =    -179.53043159 Ry
     estimated scf accuracy    <       0.00116243 Ry

     iteration #  4     ecut=    35.00 Ry     beta= 0.10
     Davidson diagonalization with overlap
     ethr =  4.84E-06,  avg # of iterations =  2.0

     negative rho (up, down):  3.678E-03 0.000E+00

     total cpu time spent up to now is      464.3 secs

     total energy              =    -179.53033631 Ry
     estimated scf accuracy    <       0.00031881 Ry

     iteration #  5     ecut=    35.00 Ry     beta= 0.10
     Davidson diagonalization with overlap
     ethr =  1.33E-06,  avg # of iterations =  5.0

     negative rho (up, down):  2.645E-03 0.000E+00

     total cpu time spent up to now is      474.8 secs

     total energy              =    -179.53039229 Ry
     estimated scf accuracy    <       0.00047283 Ry

     iteration #  6     ecut=    35.00 Ry     beta= 0.10
     Davidson diagonalization with overlap
     ethr =  1.33E-06,  avg # of iterations =  2.2

     negative rho (up, down):  2.348E-03 0.000E+00

     total cpu time spent up to now is      483.4 secs

     total energy              =    -179.53047020 Ry
     estimated scf accuracy    <       0.00002062 Ry

     iteration #  7     ecut=    35.00 Ry     beta= 0.10
     Davidson diagonalization with overlap
     ethr =  8.59E-08,  avg # of iterations =  5.5

     negative rho (up, down):  2.095E-03 0.000E+00

     total cpu time spent up to now is      496.9 secs

     total energy              =    -179.53048618 Ry
     estimated scf accuracy    <       0.00002342 Ry

     iteration #  8     ecut=    35.00 Ry     beta= 0.10
     Davidson diagonalization with overlap
     ethr =  8.59E-08,  avg # of iterations =  1.2

     negative rho (up, down):  1.977E-03 0.000E+00

     total cpu time spent up to now is      505.1 secs

     total energy              =    -179.53048594 Ry
     estimated scf accuracy    <       0.00001379 Ry

     iteration #  9     ecut=    35.00 Ry     beta= 0.10
     Davidson diagonalization with overlap
     ethr =  5.74E-08,  avg # of iterations =  2.5

     negative rho (up, down):  1.894E-03 0.000E+00

     total cpu time spent up to now is      513.3 secs

     total energy              =    -179.53049288 Ry
     estimated scf accuracy    <       0.00001079 Ry

     iteration # 10     ecut=    35.00 Ry     beta= 0.10
     Davidson diagonalization with overlap
     ethr =  4.50E-08,  avg # of iterations =  1.2

     negative rho (up, down):  1.691E-03 0.000E+00

     total cpu time spent up to now is      522.2 secs

     total energy              =    -179.53050212 Ry
     estimated scf accuracy    <       0.00000326 Ry

     iteration # 11     ecut=    35.00 Ry     beta= 0.10
     Davidson diagonalization with overlap
     ethr =  1.36E-08,  avg # of iterations =  3.2

     negative rho (up, down):  1.498E-03 0.000E+00

     total cpu time spent up to now is      531.1 secs

     total energy              =    -179.53051176 Ry
     estimated scf accuracy    <       0.00000284 Ry

     iteration # 12     ecut=    35.00 Ry     beta= 0.10
     Davidson diagonalization with overlap
     ethr =  1.18E-08,  avg # of iterations =  3.2

     negative rho (up, down):  1.401E-03 0.000E+00

     total cpu time spent up to now is      539.9 secs

     total energy              =    -179.53051571 Ry
     estimated scf accuracy    <       0.00000380 Ry

     iteration # 13     ecut=    35.00 Ry     beta= 0.10
     Davidson diagonalization with overlap
     ethr =  1.18E-08,  avg # of iterations =  1.0

     negative rho (up, down):  1.310E-03 0.000E+00

     total cpu time spent up to now is      547.2 secs

     total energy              =    -179.53051813 Ry
     estimated scf accuracy    <       0.00000199 Ry

     iteration # 14     ecut=    35.00 Ry     beta= 0.10
     Davidson diagonalization with overlap
     ethr =  8.29E-09,  avg # of iterations =  2.0

     negative rho (up, down):  8.962E-04 0.000E+00

     total cpu time spent up to now is      556.1 secs

     End of self-consistent calculation

          k = 0.0000 0.0000 0.0000 (  7019 PWs)   bands (ev):

   -68.3172 -42.1335 -42.1335 -41.9781 -19.0092 -14.1055 -10.0111  -7.8456
    -7.8456  -4.3728  -4.3728  -3.2352  -2.6376  -2.2432  -2.2432  -2.0506

          k = 0.0000 0.2887 0.0000 (  7011 PWs)   bands (ev):

   -68.3172 -42.1327 -42.1302 -41.9798 -18.9188 -14.0544  -9.9354  -8.4294
    -7.7918  -4.6418  -4.6017  -3.3226  -3.0292  -2.7343  -2.7213  -1.7451

          k = 0.0000-0.5774 0.0000 (  7022 PWs)   bands (ev):

   -68.3171 -42.1334 -42.1314 -41.9794 -18.8254 -14.0019  -9.8489  -8.8994
    -7.7392  -4.9253  -4.7560  -3.6122  -3.3854  -3.1439  -2.9907  -1.4845

          k = 0.2500 0.4330 0.0000 (  7024 PWs)   bands (ev):

   -68.3171 -42.1342 -42.1318 -41.9783 -18.8259 -14.0018  -9.8497  -8.6768
    -8.0402  -5.0960  -4.4562  -3.7461  -3.3657  -3.2051  -3.0212  -1.5340

     the Fermi energy is    -3.3457 ev

!    total energy              =    -179.53053895 Ry
     estimated scf accuracy    <       0.00000012 Ry
     smearing contrib. (-TS)   =      -0.00288284 Ry
     internal energy E=F+TS    =    -179.52765612 Ry

     The total energy is F=E-TS. E is the sum of the following terms:
     one-electron contribution =    -906.62572620 Ry
     hartree contribution      =     450.50142540 Ry
     xc contribution           =     -31.55539511 Ry
     ewald contribution        =     308.15203979 Ry

     convergence has been achieved in  14 iterations

     negative rho (up, down):  8.962E-04 0.000E+00

     Forces acting on atoms (cartesian axes, Ry/au):

     atom    1 type  4   force =     0.00000000    0.00000000    0.02676396
     atom    2 type  2   force =     0.00000000    0.00000000    0.01138639
     atom    3 type  3   force =     0.00000000   -0.00000000    0.02695984
     atom    4 type  1   force =     0.00000000   -0.00000000   -0.06511019

     Total force =     0.076237     Total SCF correction =     0.000713


     Computing stress (Cartesian axis) and pressure


     negative rho (up, down):  8.962E-04 0.000E+00
          total   stress  (Ry/bohr**3)                   (kbar)     P=      -72.37
  -0.00055388   0.00000000   0.00000000          -81.48        0.00        0.00
   0.00000000  -0.00055388   0.00000000            0.00      -81.48        0.00
   0.00000000   0.00000000  -0.00036811            0.00        0.00      -54.15

     Energy error            =      9.9E-03 Ry
     Gradient error          =      6.5E-02 Ry/Bohr

     number of scf cycles    =   2
     number of bfgs steps    =   1

     energy             old  =    -179.5206303786 Ry
     energy             new  =    -179.5305389546 Ry

     CASE: energy            _new < energy            _old

     new trust radius        =       0.0901182175 bohr
     new conv_thr            =       0.0000006511 Ry


ATOMIC_POSITIONS (angstrom)
V                0.0000000000        0.0000000000        0.0584363320
C                2.1838020000        1.2608186700        0.9137945875
Se               2.1838020000        1.2608186700       -0.9148302835
H                2.1838020000        1.2608186700        2.0210396452



     Writing config-only to output data dir ./tmp/candidate_01_VCSe_H_relaxed.save/ :
     XML data file
     NEW-OLD atomic charge density approx. for the potential

     Check: negative core charge=   -0.000002

     negative rho (up, down):  1.033E-03 0.000E+00

     total cpu time spent up to now is      571.9 secs

     per-process dynamical memory:   196.9 Mb

     Self-consistent Calculation

     iteration #  1     ecut=    35.00 Ry     beta= 0.10
     Davidson diagonalization with overlap
     ethr =  1.00E-06,  avg # of iterations = 10.2

     negative rho (up, down):  9.915E-04 0.000E+00

     total cpu time spent up to now is      590.4 secs

     total energy              =    -179.53635265 Ry
     estimated scf accuracy    <       0.00330072 Ry

     iteration #  2     ecut=    35.00 Ry     beta= 0.10
     Davidson diagonalization with overlap
     ethr =  1.38E-05,  avg # of iterations =  1.0

     negative rho (up, down):  1.959E-03 0.000E+00

     total cpu time spent up to now is      598.1 secs

     total energy              =    -179.53585425 Ry
     estimated scf accuracy    <       0.00225007 Ry

     iteration #  3     ecut=    35.00 Ry     beta= 0.10
     Davidson diagonalization with overlap
     ethr =  9.38E-06,  avg # of iterations =  1.8

     negative rho (up, down):  3.066E-03 0.000E+00

     total cpu time spent up to now is      605.1 secs

     total energy              =    -179.53582451 Ry
     estimated scf accuracy    <       0.00060377 Ry

     iteration #  4     ecut=    35.00 Ry     beta= 0.10
     Davidson diagonalization with overlap
     ethr =  2.52E-06,  avg # of iterations =  1.5

     negative rho (up, down):  5.426E-03 0.000E+00

     total cpu time spent up to now is      613.7 secs

     total energy              =    -179.53562190 Ry
     estimated scf accuracy    <       0.00016805 Ry

     iteration #  5     ecut=    35.00 Ry     beta= 0.10
     Davidson diagonalization with overlap
     ethr =  7.00E-07,  avg # of iterations =  4.5

     negative rho (up, down):  4.907E-03 0.000E+00

     total cpu time spent up to now is      624.4 secs

     total energy              =    -179.53575597 Ry
     estimated scf accuracy    <       0.00024467 Ry

     iteration #  6     ecut=    35.00 Ry     beta= 0.10
     Davidson diagonalization with overlap
     ethr =  7.00E-07,  avg # of iterations =  1.0

     negative rho (up, down):  4.494E-03 0.000E+00

     total cpu time spent up to now is      631.4 secs

     total energy              =    -179.53574854 Ry
     estimated scf accuracy    <       0.00022338 Ry

     iteration #  7     ecut=    35.00 Ry     beta= 0.10
     Davidson diagonalization with overlap
     ethr =  7.00E-07,  avg # of iterations =  2.0

     negative rho (up, down):  4.084E-03 0.000E+00

     total cpu time spent up to now is      640.4 secs

     total energy              =    -179.53580275 Ry
     estimated scf accuracy    <       0.00001526 Ry

     iteration #  8     ecut=    35.00 Ry     beta= 0.10
     Davidson diagonalization with overlap
     ethr =  6.36E-08,  avg # of iterations =  2.2

     negative rho (up, down):  3.462E-03 0.000E+00

     total cpu time spent up to now is      650.2 secs

     total energy              =    -179.53584629 Ry
     estimated scf accuracy    <       0.00001475 Ry

     iteration #  9     ecut=    35.00 Ry     beta= 0.10
     Davidson diagonalization with overlap
     ethr =  6.15E-08,  avg # of iterations =  3.0

     negative rho (up, down):  3.161E-03 0.000E+00

     total cpu time spent up to now is      660.1 secs

     total energy              =    -179.53586947 Ry
     estimated scf accuracy    <       0.00000175 Ry

     iteration # 10     ecut=    35.00 Ry     beta= 0.10
     Davidson diagonalization with overlap
     ethr =  7.31E-09,  avg # of iterations =  4.5

     negative rho (up, down):  2.885E-03 0.000E+00

     total cpu time spent up to now is      670.8 secs

     total energy              =    -179.53588531 Ry
     estimated scf accuracy    <       0.00000277 Ry

     iteration # 11     ecut=    35.00 Ry     beta= 0.10
     Davidson diagonalization with overlap
     ethr =  7.31E-09,  avg # of iterations =  1.2

     negative rho (up, down):  2.630E-03 0.000E+00

     total cpu time spent up to now is      679.0 secs

     total energy              =    -179.53589281 Ry
     estimated scf accuracy    <       0.00000192 Ry

     iteration # 12     ecut=    35.00 Ry     beta= 0.10
     Davidson diagonalization with overlap
     ethr =  7.31E-09,  avg # of iterations =  4.8

     negative rho (up, down):  2.395E-03 0.000E+00

     total cpu time spent up to now is      689.9 secs

     total energy              =    -179.53590669 Ry
     estimated scf accuracy    <       0.00000518 Ry

     iteration # 13     ecut=    35.00 Ry     beta= 0.10
     Davidson diagonalization with overlap
     ethr =  7.31E-09,  avg # of iterations =  2.0

     negative rho (up, down):  2.212E-03 0.000E+00

     total cpu time spent up to now is      697.8 secs

     total energy              =    -179.53591235 Ry
     estimated scf accuracy    <       0.00000182 Ry

     iteration # 14     ecut=    35.00 Ry     beta= 0.10
     Davidson diagonalization with overlap
     ethr =  7.31E-09,  avg # of iterations =  3.0

     negative rho (up, down):  2.047E-03 0.000E+00

     total cpu time spent up to now is      707.6 secs

     total energy              =    -179.53591726 Ry
     estimated scf accuracy    <       0.00000074 Ry

     iteration # 15     ecut=    35.00 Ry     beta= 0.10
     Davidson diagonalization with overlap
     ethr =  3.09E-09,  avg # of iterations =  1.0

     negative rho (up, down):  1.012E-03 0.000E+00

     total cpu time spent up to now is      715.3 secs

     End of self-consistent calculation

          k = 0.0000 0.0000 0.0000 (  7019 PWs)   bands (ev):

   -68.3075 -42.1391 -42.1391 -41.9481 -19.2939 -14.2122 -10.1614  -8.0171
    -8.0171  -4.3684  -4.3684  -3.2099  -2.7273  -2.2589  -2.2589  -2.0174

          k = 0.0000 0.2887 0.0000 (  7011 PWs)   bands (ev):

   -68.3075 -42.1383 -42.1359 -41.9497 -19.2069 -14.1634 -10.0867  -8.5800
    -7.9590  -4.6329  -4.6053  -3.3102  -3.0531  -2.7492  -2.6969  -1.6999

          k = 0.0000-0.5774 0.0000 (  7022 PWs)   bands (ev):

   -68.3074 -42.1391 -42.1370 -41.9494 -19.1173 -14.1133  -9.9986  -9.0382
    -7.9010  -4.9185  -4.7696  -3.6484  -3.3811  -3.1721  -2.9305  -1.4366

          k = 0.2500 0.4330 0.0000 (  7024 PWs)   bands (ev):

   -68.3074 -42.1398 -42.1374 -41.9483 -19.1179 -14.1133 -10.0001  -8.8194
    -8.1926  -5.1108  -4.4449  -3.7840  -3.3589  -3.1621  -3.0478  -1.4800

     the Fermi energy is    -3.3354 ev

!    total energy              =    -179.53595327 Ry
     estimated scf accuracy    <       0.00000034 Ry
     smearing contrib. (-TS)   =      -0.00294783 Ry
     internal energy E=F+TS    =    -179.53300544 Ry

     The total energy is F=E-TS. E is the sum of the following terms:
     one-electron contribution =    -910.79773682 Ry
     hartree contribution      =     452.55556666 Ry
     xc contribution           =     -31.62242091 Ry
     ewald contribution        =     310.33158562 Ry

     convergence has been achieved in  15 iterations

     negative rho (up, down):  1.012E-03 0.000E+00

     Forces acting on atoms (cartesian axes, Ry/au):

     atom    1 type  4   force =     0.00000000    0.00000000    0.02483483
     atom    2 type  2   force =     0.00000000    0.00000000    0.02797401
     atom    3 type  3   force =     0.00000000    0.00000000   -0.02005444
     atom    4 type  1   force =     0.00000000    0.00000000   -0.03275440

     Total force =     0.053613     Total SCF correction =     0.002063


     Computing stress (Cartesian axis) and pressure


     negative rho (up, down):  1.012E-03 0.000E+00
          total   stress  (Ry/bohr**3)                   (kbar)     P=      -66.64
  -0.00055409   0.00000000   0.00000000          -81.51        0.00        0.00
   0.00000000  -0.00055409  -0.00000000            0.00      -81.51       -0.00
   0.00000000  -0.00000000  -0.00025077            0.00       -0.00      -36.89

     Energy error            =      5.4E-03 Ry
     Gradient error          =      3.3E-02 Ry/Bohr

     number of scf cycles    =   3
     number of bfgs steps    =   2

     energy             old  =    -179.5305389546 Ry
     energy             new  =    -179.5359532718 Ry

     CASE: energy            _new < energy            _old

     new trust radius        =       0.0502884616 bohr
     new conv_thr            =       0.0000003275 Ry


ATOMIC_POSITIONS (angstrom)
V                0.0000000000        0.0000000000        0.0803710579
C                2.1838020000        1.2608186700        0.9169265380
Se               2.1838020000        1.2608186700       -0.9132854521
H                2.1838020000        1.2608186700        1.9944281373



     Writing config-only to output data dir ./tmp/candidate_01_VCSe_H_relaxed.save/ :
     XML data file
     NEW-OLD atomic charge density approx. for the potential

     Check: negative core charge=   -0.000002

     negative rho (up, down):  1.097E-03 0.000E+00

     total cpu time spent up to now is      731.5 secs

     per-process dynamical memory:   196.9 Mb

     Self-consistent Calculation

     iteration #  1     ecut=    35.00 Ry     beta= 0.10
     Davidson diagonalization with overlap
     ethr =  1.00E-06,  avg # of iterations =  8.8

     negative rho (up, down):  1.055E-03 0.000E+00

     total cpu time spent up to now is      747.4 secs

     total energy              =    -179.53768462 Ry
     estimated scf accuracy    <       0.00121198 Ry

     iteration #  2     ecut=    35.00 Ry     beta= 0.10
     Davidson diagonalization with overlap
     ethr =  5.05E-06,  avg # of iterations =  1.0

     negative rho (up, down):  1.693E-03 0.000E+00

     total cpu time spent up to now is      755.3 secs

     total energy              =    -179.53754109 Ry
     estimated scf accuracy    <       0.00076097 Ry

     iteration #  3     ecut=    35.00 Ry     beta= 0.10
     Davidson diagonalization with overlap
     ethr =  3.17E-06,  avg # of iterations =  1.2

     negative rho (up, down):  2.181E-03 0.000E+00

     total cpu time spent up to now is      763.2 secs

     total energy              =    -179.53754593 Ry
     estimated scf accuracy    <       0.00018370 Ry

     iteration #  4     ecut=    35.00 Ry     beta= 0.10
     Davidson diagonalization with overlap
     ethr =  7.65E-07,  avg # of iterations =  1.2

     negative rho (up, down):  5.057E-03 0.000E+00

     total cpu time spent up to now is      771.2 secs

     total energy              =    -179.53731769 Ry
     estimated scf accuracy    <       0.00011216 Ry

     iteration #  5     ecut=    35.00 Ry     beta= 0.10
     Davidson diagonalization with overlap
     ethr =  4.67E-07,  avg # of iterations =  3.0

     negative rho (up, down):  4.490E-03 0.000E+00

     total cpu time spent up to now is      780.5 secs

     total energy              =    -179.53739686 Ry
     estimated scf accuracy    <       0.00002063 Ry

     iteration #  6     ecut=    35.00 Ry     beta= 0.10
     Davidson diagonalization with overlap
     ethr =  8.60E-08,  avg # of iterations =  3.5

     negative rho (up, down):  3.879E-03 0.000E+00

     total cpu time spent up to now is      791.1 secs

     total energy              =    -179.53744335 Ry
     estimated scf accuracy    <       0.00002656 Ry

     iteration #  7     ecut=    35.00 Ry     beta= 0.10
     Davidson diagonalization with overlap
     ethr =  8.60E-08,  avg # of iterations =  1.5

     negative rho (up, down):  3.124E-03 0.000E+00

     total cpu time spent up to now is      799.7 secs

     total energy              =    -179.53749530 Ry
     estimated scf accuracy    <       0.00000759 Ry

     iteration #  8     ecut=    35.00 Ry     beta= 0.10
     Davidson diagonalization with overlap
     ethr =  3.16E-08,  avg # of iterations =  3.8

     negative rho (up, down):  2.784E-03 0.000E+00

     total cpu time spent up to now is      810.5 secs

     total energy              =    -179.53751939 Ry
     estimated scf accuracy    <       0.00000597 Ry

     iteration #  9     ecut=    35.00 Ry     beta= 0.10
     Davidson diagonalization with overlap
     ethr =  2.49E-08,  avg # of iterations =  1.0

     negative rho (up, down):  2.505E-03 0.000E+00

     total cpu time spent up to now is      821.6 secs

     total energy              =    -179.53753455 Ry
     estimated scf accuracy    <       0.00000358 Ry

     iteration # 10     ecut=    35.00 Ry     beta= 0.10
     Davidson diagonalization with overlap
     ethr =  1.49E-08,  avg # of iterations =  1.8

     negative rho (up, down):  2.329E-03 0.000E+00

     total cpu time spent up to now is      830.5 secs

     total energy              =    -179.53754350 Ry
     estimated scf accuracy    <       0.00000201 Ry

     iteration # 11     ecut=    35.00 Ry     beta= 0.10
     Davidson diagonalization with overlap
     ethr =  8.37E-09,  avg # of iterations =  2.5

     negative rho (up, down):  2.127E-03 0.000E+00

     total cpu time spent up to now is      839.8 secs

     total energy              =    -179.53755380 Ry
     estimated scf accuracy    <       0.00000053 Ry

     iteration # 12     ecut=    35.00 Ry     beta= 0.10
     Davidson diagonalization with overlap
     ethr =  2.20E-09,  avg # of iterations =  3.0

     negative rho (up, down):  1.921E-03 0.000E+00

     total cpu time spent up to now is      848.1 secs

     total energy              =    -179.53756359 Ry
     estimated scf accuracy    <       0.00000036 Ry

     iteration # 13     ecut=    35.00 Ry     beta= 0.10
     Davidson diagonalization with overlap
     ethr =  1.51E-09,  avg # of iterations =  2.0

     negative rho (up, down):  9.874E-04 0.000E+00

     total cpu time spent up to now is      856.5 secs

     End of self-consistent calculation

          k = 0.0000 0.0000 0.0000 (  7019 PWs)   bands (ev):

   -68.3294 -42.1560 -42.1560 -41.9787 -19.2952 -14.3597 -10.2209  -8.0136
    -8.0136  -4.3975  -4.3975  -3.2275  -2.7529  -2.2880  -2.2880  -2.0367

          k = 0.0000 0.2887 0.0000 (  7011 PWs)   bands (ev):

   -68.3293 -42.1552 -42.1527 -41.9803 -19.2085 -14.3127 -10.1455  -8.5803
    -7.9572  -4.6654  -4.6333  -3.3317  -3.0612  -2.7628  -2.7294  -1.7319

          k = 0.0000-0.5774 0.0000 (  7022 PWs)   bands (ev):

   -68.3293 -42.1559 -42.1539 -41.9800 -19.1191 -14.2644 -10.0576  -9.0399
    -7.9012  -4.9524  -4.7959  -3.6558  -3.4055  -3.1830  -2.9572  -1.4706

          k = 0.2500 0.4330 0.0000 (  7024 PWs)   bands (ev):

   -68.3293 -42.1567 -42.1543 -41.9789 -19.1197 -14.2644 -10.0589  -8.8210
    -8.1938  -5.1372  -4.4818  -3.7906  -3.3815  -3.1825  -3.0633  -1.5140

     the Fermi energy is    -3.3580 ev

!    total energy              =    -179.53760763 Ry
     estimated scf accuracy    <       0.00000014 Ry
     smearing contrib. (-TS)   =      -0.00282999 Ry
     internal energy E=F+TS    =    -179.53477764 Ry

     The total energy is F=E-TS. E is the sum of the following terms:
     one-electron contribution =    -911.20878754 Ry
     hartree contribution      =     452.76188569 Ry
     xc contribution           =     -31.64154871 Ry
     ewald contribution        =     310.55367292 Ry

     convergence has been achieved in  13 iterations

     negative rho (up, down):  9.874E-04 0.000E+00

     Forces acting on atoms (cartesian axes, Ry/au):

     atom    1 type  4   force =     0.00000000    0.00000000    0.02305964
     atom    2 type  2   force =     0.00000000   -0.00000000   -0.01287732
     atom    3 type  3   force =     0.00000000   -0.00000000   -0.01727900
     atom    4 type  1   force =     0.00000000    0.00000000    0.00709668

     Total force =     0.032350     Total SCF correction =     0.000433


     Computing stress (Cartesian axis) and pressure


     negative rho (up, down):  9.874E-04 0.000E+00
          total   stress  (Ry/bohr**3)                   (kbar)     P=      -64.67
  -0.00055468   0.00000000   0.00000000          -81.60        0.00        0.00
   0.00000000  -0.00055468   0.00000000            0.00      -81.60        0.00
   0.00000000   0.00000000  -0.00020951            0.00        0.00      -30.82

     Energy error            =      1.7E-03 Ry
     Gradient error          =      2.3E-02 Ry/Bohr

     number of scf cycles    =   4
     number of bfgs steps    =   3

     energy             old  =    -179.5359532718 Ry
     energy             new  =    -179.5376076263 Ry

     CASE: energy            _new < energy            _old

     new trust radius        =       0.0487052484 bohr
     new conv_thr            =       0.0000001654 Ry


ATOMIC_POSITIONS (angstrom)
V                0.0000000000        0.0000000000        0.1061447654
C                2.1838020000        1.2608186700        0.9103505170
Se               2.1838020000        1.2608186700       -0.9211675395
H                2.1838020000        1.2608186700        1.9831125382



     Writing config-only to output data dir ./tmp/candidate_01_VCSe_H_relaxed.save/ :
     XML data file
     NEW-OLD atomic charge density approx. for the potential

     Check: negative core charge=   -0.000002

     negative rho (up, down):  1.089E-03 0.000E+00

     total cpu time spent up to now is      873.0 secs

     per-process dynamical memory:   196.9 Mb

     Self-consistent Calculation

     iteration #  1     ecut=    35.00 Ry     beta= 0.10
     Davidson diagonalization with overlap
     ethr =  1.00E-06,  avg # of iterations = 10.5

     negative rho (up, down):  1.019E-03 0.000E+00

     total cpu time spent up to now is      894.5 secs

     total energy              =    -179.53887584 Ry
     estimated scf accuracy    <       0.00023986 Ry

     iteration #  2     ecut=    35.00 Ry     beta= 0.10
     Davidson diagonalization with overlap
     ethr =  9.99E-07,  avg # of iterations =  1.0

     negative rho (up, down):  1.806E-03 0.000E+00

     total cpu time spent up to now is      900.9 secs

     total energy              =    -179.53883968 Ry
     estimated scf accuracy    <       0.00018124 Ry

     iteration #  3     ecut=    35.00 Ry     beta= 0.10
     Davidson diagonalization with overlap
     ethr =  7.55E-07,  avg # of iterations =  1.2

     negative rho (up, down):  3.476E-03 0.000E+00

     total cpu time spent up to now is      907.8 secs

     total energy              =    -179.53874245 Ry
     estimated scf accuracy    <       0.00009002 Ry

     iteration #  4     ecut=    35.00 Ry     beta= 0.10
     Davidson diagonalization with overlap
     ethr =  3.75E-07,  avg # of iterations =  1.8

     negative rho (up, down):  5.757E-03 0.000E+00

     total cpu time spent up to now is      917.3 secs

     total energy              =    -179.53853572 Ry
     estimated scf accuracy    <       0.00003232 Ry

     iteration #  5     ecut=    35.00 Ry     beta= 0.10
     Davidson diagonalization with overlap
     ethr =  1.35E-07,  avg # of iterations =  3.2

     negative rho (up, down):  5.092E-03 0.000E+00

     total cpu time spent up to now is      925.7 secs

     total energy              =    -179.53860290 Ry
     estimated scf accuracy    <       0.00001142 Ry

     iteration #  6     ecut=    35.00 Ry     beta= 0.10
     Davidson diagonalization with overlap
     ethr =  4.76E-08,  avg # of iterations =  3.2

     negative rho (up, down):  3.559E-03 0.000E+00

     total cpu time spent up to now is      934.0 secs

     total energy              =    -179.53873778 Ry
     estimated scf accuracy    <       0.00001302 Ry

     iteration #  7     ecut=    35.00 Ry     beta= 0.10
     Davidson diagonalization with overlap
     ethr =  4.76E-08,  avg # of iterations =  3.0

     negative rho (up, down):  3.231E-03 0.000E+00

     total cpu time spent up to now is      942.8 secs

     total energy              =    -179.53876754 Ry
     estimated scf accuracy    <       0.00000188 Ry

     iteration #  8     ecut=    35.00 Ry     beta= 0.10
     Davidson diagonalization with overlap
     ethr =  7.82E-09,  avg # of iterations =  3.0

     negative rho (up, down):  3.068E-03 0.000E+00

     total cpu time spent up to now is      951.3 secs

     total energy              =    -179.53878161 Ry
     estimated scf accuracy    <       0.00000213 Ry

     iteration #  9     ecut=    35.00 Ry     beta= 0.10
     Davidson diagonalization with overlap
     ethr =  7.82E-09,  avg # of iterations =  2.0

     negative rho (up, down):  2.754E-03 0.000E+00

     total cpu time spent up to now is      959.1 secs

     total energy              =    -179.53880294 Ry
     estimated scf accuracy    <       0.00000155 Ry

     iteration # 10     ecut=    35.00 Ry     beta= 0.10
     Davidson diagonalization with overlap
     ethr =  6.48E-09,  avg # of iterations =  2.2

     negative rho (up, down):  2.388E-03 0.000E+00

     total cpu time spent up to now is      967.4 secs

     total energy              =    -179.53882672 Ry
     estimated scf accuracy    <       0.00000077 Ry

     iteration # 11     ecut=    35.00 Ry     beta= 0.10
     Davidson diagonalization with overlap
     ethr =  3.21E-09,  avg # of iterations =  3.0

     negative rho (up, down):  2.167E-03 0.000E+00

     total cpu time spent up to now is      976.7 secs

     total energy              =    -179.53884044 Ry
     estimated scf accuracy    <       0.00000066 Ry

     iteration # 12     ecut=    35.00 Ry     beta= 0.10
     Davidson diagonalization with overlap
     ethr =  2.73E-09,  avg # of iterations =  2.0

     negative rho (up, down):  1.945E-03 0.000E+00

     total cpu time spent up to now is      984.6 secs

     total energy              =    -179.53885287 Ry
     estimated scf accuracy    <       0.00000045 Ry

     iteration # 13     ecut=    35.00 Ry     beta= 0.10
     Davidson diagonalization with overlap
     ethr =  1.88E-09,  avg # of iterations =  3.2

     negative rho (up, down):  1.767E-03 0.000E+00

     total cpu time spent up to now is      994.2 secs

     total energy              =    -179.53886322 Ry
     estimated scf accuracy    <       0.00000054 Ry

     iteration # 14     ecut=    35.00 Ry     beta= 0.10
     Davidson diagonalization with overlap
     ethr =  1.88E-09,  avg # of iterations =  2.0

     negative rho (up, down):  8.465E-04 0.000E+00

     total cpu time spent up to now is     1002.4 secs

     End of self-consistent calculation

          k = 0.0000 0.0000 0.0000 (  7019 PWs)   bands (ev):

   -68.3149 -42.1325 -42.1325 -41.9809 -19.2543 -14.3868 -10.2088  -7.9636
    -7.9636  -4.3938  -4.3938  -3.2084  -2.7422  -2.2946  -2.2946  -2.0069

          k = 0.0000 0.2887 0.0000 (  7011 PWs)   bands (ev):

   -68.3148 -42.1316 -42.1292 -41.9825 -19.1680 -14.3396 -10.1320  -8.5353
    -7.9100  -4.6689  -4.6279  -3.3188  -3.0269  -2.7354  -2.7301  -1.7329

          k = 0.0000-0.5774 0.0000 (  7022 PWs)   bands (ev):

   -68.3148 -42.1323 -42.1304 -41.9822 -19.0791 -14.2912 -10.0429  -8.9979
    -7.8573  -4.9588  -4.7873  -3.6187  -3.3996  -3.1503  -2.9528  -1.4770

          k = 0.2500 0.4330 0.0000 (  7024 PWs)   bands (ev):

   -68.3148 -42.1331 -42.1307 -41.9811 -19.0796 -14.2912 -10.0441  -8.7786
    -8.1512  -5.1297  -4.4931  -3.7514  -3.3733  -3.1676  -3.0360  -1.5245

     the Fermi energy is    -3.3491 ev

!    total energy              =    -179.53890932 Ry
     estimated scf accuracy    <       0.00000012 Ry
     smearing contrib. (-TS)   =      -0.00256714 Ry
     internal energy E=F+TS    =    -179.53634218 Ry

     The total energy is F=E-TS. E is the sum of the following terms:
     one-electron contribution =    -911.01476974 Ry
     hartree contribution      =     452.68545982 Ry
     xc contribution           =     -31.64242333 Ry
     ewald contribution        =     310.43539107 Ry

     convergence has been achieved in  14 iterations

     negative rho (up, down):  8.465E-04 0.000E+00

     Forces acting on atoms (cartesian axes, Ry/au):

     atom    1 type  4   force =     0.00000000   -0.00000000    0.02091476
     atom    2 type  2   force =     0.00000000    0.00000000   -0.01949189
     atom    3 type  3   force =     0.00000000   -0.00000000   -0.01604406
     atom    4 type  1   force =     0.00000000   -0.00000000    0.01462119

     Total force =     0.035896     Total SCF correction =     0.000552


     Computing stress (Cartesian axis) and pressure


     negative rho (up, down):  8.465E-04 0.000E+00
          total   stress  (Ry/bohr**3)                   (kbar)     P=      -64.63
  -0.00055901   0.00000000   0.00000000          -82.23        0.00        0.00
   0.00000000  -0.00055901   0.00000000            0.00      -82.23        0.00
   0.00000000   0.00000000  -0.00020009            0.00        0.00      -29.43

     Energy error            =      1.3E-03 Ry
     Gradient error          =      2.1E-02 Ry/Bohr

     number of scf cycles    =   5
     number of bfgs steps    =   4

     energy             old  =    -179.5376076263 Ry
     energy             new  =    -179.5389093205 Ry

     CASE: energy            _new < energy            _old


     WARNING: bfgs curvature condition failed, Theta= 0.936
     new trust radius        =       0.0535757732 bohr
     new conv_thr            =       0.0000001302 Ry


ATOMIC_POSITIONS (angstrom)
V                0.0000000000        0.0000000000        0.1344958436
C                2.1838020000        1.2608186700        0.9017687937
Se               2.1838020000        1.2608186700       -0.9317982274
H                2.1838020000        1.2608186700        1.9739738712



     Writing config-only to output data dir ./tmp/candidate_01_VCSe_H_relaxed.save/ :
     XML data file
     NEW-OLD atomic charge density approx. for the potential

     Check: negative core charge=   -0.000002

     negative rho (up, down):  9.641E-04 0.000E+00

     total cpu time spent up to now is     1018.4 secs

     per-process dynamical memory:   196.9 Mb

     Self-consistent Calculation

     iteration #  1     ecut=    35.00 Ry     beta= 0.10
     Davidson diagonalization with overlap
     ethr =  1.00E-06,  avg # of iterations = 11.2

     negative rho (up, down):  8.878E-04 0.000E+00

     total cpu time spent up to now is     1035.3 secs

     total energy              =    -179.54030016 Ry
     estimated scf accuracy    <       0.00032030 Ry

     iteration #  2     ecut=    35.00 Ry     beta= 0.10
     Davidson diagonalization with overlap
     ethr =  1.33E-06,  avg # of iterations =  1.0

     negative rho (up, down):  2.060E-03 0.000E+00

     total cpu time spent up to now is     1043.6 secs

     total energy              =    -179.54024096 Ry
     estimated scf accuracy    <       0.00025969 Ry

     iteration #  3     ecut=    35.00 Ry     beta= 0.10
     Davidson diagonalization with overlap
     ethr =  1.08E-06,  avg # of iterations =  1.0

     negative rho (up, down):  4.357E-03 0.000E+00

     total cpu time spent up to now is     1051.2 secs

     total energy              =    -179.54006655 Ry
     estimated scf accuracy    <       0.00013576 Ry

     iteration #  4     ecut=    35.00 Ry     beta= 0.10
     Davidson diagonalization with overlap
     ethr =  5.66E-07,  avg # of iterations =  1.8

     negative rho (up, down):  5.901E-03 0.000E+00

     total cpu time spent up to now is     1058.1 secs

     total energy              =    -179.53991107 Ry
     estimated scf accuracy    <       0.00003698 Ry

     iteration #  5     ecut=    35.00 Ry     beta= 0.10
     Davidson diagonalization with overlap
     ethr =  1.54E-07,  avg # of iterations =  3.0

     negative rho (up, down):  4.845E-03 0.000E+00

     total cpu time spent up to now is     1066.4 secs

     total energy              =    -179.54001815 Ry
     estimated scf accuracy    <       0.00001429 Ry

     iteration #  6     ecut=    35.00 Ry     beta= 0.10
     Davidson diagonalization with overlap
     ethr =  5.95E-08,  avg # of iterations =  3.2

     negative rho (up, down):  3.364E-03 0.000E+00

     total cpu time spent up to now is     1075.3 secs

     total energy              =    -179.54014768 Ry
     estimated scf accuracy    <       0.00001235 Ry

     iteration #  7     ecut=    35.00 Ry     beta= 0.10
     Davidson diagonalization with overlap
     ethr =  5.15E-08,  avg # of iterations =  2.8

     negative rho (up, down):  3.034E-03 0.000E+00

     total cpu time spent up to now is     1083.9 secs

     total energy              =    -179.54017718 Ry
     estimated scf accuracy    <       0.00000273 Ry

     iteration #  8     ecut=    35.00 Ry     beta= 0.10
     Davidson diagonalization with overlap
     ethr =  1.14E-08,  avg # of iterations =  2.8

     negative rho (up, down):  2.863E-03 0.000E+00

     total cpu time spent up to now is     1093.5 secs

     total energy              =    -179.54019154 Ry
     estimated scf accuracy    <       0.00000324 Ry

     iteration #  9     ecut=    35.00 Ry     beta= 0.10
     Davidson diagonalization with overlap
     ethr =  1.14E-08,  avg # of iterations =  1.8

     negative rho (up, down):  2.599E-03 0.000E+00

     total cpu time spent up to now is     1100.8 secs

     total energy              =    -179.54021065 Ry
     estimated scf accuracy    <       0.00000163 Ry

     iteration # 10     ecut=    35.00 Ry     beta= 0.10
     Davidson diagonalization with overlap
     ethr =  6.80E-09,  avg # of iterations =  2.8

     negative rho (up, down):  2.235E-03 0.000E+00

     total cpu time spent up to now is     1108.9 secs

     total energy              =    -179.54023659 Ry
     estimated scf accuracy    <       0.00000085 Ry

     iteration # 11     ecut=    35.00 Ry     beta= 0.10
     Davidson diagonalization with overlap
     ethr =  3.55E-09,  avg # of iterations =  2.8

     negative rho (up, down):  2.008E-03 0.000E+00

     total cpu time spent up to now is     1117.6 secs

     total energy              =    -179.54025290 Ry
     estimated scf accuracy    <       0.00000127 Ry

     iteration # 12     ecut=    35.00 Ry     beta= 0.10
     Davidson diagonalization with overlap
     ethr =  3.55E-09,  avg # of iterations =  2.2

     negative rho (up, down):  1.850E-03 0.000E+00

     total cpu time spent up to now is     1125.9 secs

     total energy              =    -179.54026172 Ry
     estimated scf accuracy    <       0.00000075 Ry

     iteration # 13     ecut=    35.00 Ry     beta= 0.10
     Davidson diagonalization with overlap
     ethr =  3.13E-09,  avg # of iterations =  2.0

     negative rho (up, down):  1.672E-03 0.000E+00

     total cpu time spent up to now is     1136.1 secs

     total energy              =    -179.54027411 Ry
     estimated scf accuracy    <       0.00000061 Ry

     iteration # 14     ecut=    35.00 Ry     beta= 0.10
     Davidson diagonalization with overlap
     ethr =  2.55E-09,  avg # of iterations =  3.8

     negative rho (up, down):  1.478E-03 0.000E+00

     total cpu time spent up to now is     1145.7 secs

     total energy              =    -179.54028342 Ry
     estimated scf accuracy    <       0.00000027 Ry

     iteration # 15     ecut=    35.00 Ry     beta= 0.10
     Davidson diagonalization with overlap
     ethr =  1.14E-09,  avg # of iterations =  4.8

     negative rho (up, down):  1.322E-03 0.000E+00

     total cpu time spent up to now is     1155.7 secs

     total energy              =    -179.54029002 Ry
     estimated scf accuracy    <       0.00000018 Ry

     iteration # 16     ecut=    35.00 Ry     beta= 0.10
     Davidson diagonalization with overlap
     ethr =  7.29E-10,  avg # of iterations =  3.0

     negative rho (up, down):  1.230E-03 0.000E+00

     total cpu time spent up to now is     1164.3 secs

     total energy              =    -179.54029371 Ry
     estimated scf accuracy    <       0.00000021 Ry

     iteration # 17     ecut=    35.00 Ry     beta= 0.10
     Davidson diagonalization with overlap
     ethr =  7.29E-10,  avg # of iterations =  4.2

     negative rho (up, down):  1.197E-03 0.000E+00

     total cpu time spent up to now is     1174.1 secs

     total energy              =    -179.54029711 Ry
     estimated scf accuracy    <       0.00000021 Ry

     iteration # 18     ecut=    35.00 Ry     beta= 0.10
     Davidson diagonalization with overlap
     ethr =  7.29E-10,  avg # of iterations =  3.2

     negative rho (up, down):  6.415E-04 0.000E+00

     total cpu time spent up to now is     1182.8 secs

     End of self-consistent calculation

          k = 0.0000 0.0000 0.0000 (  7019 PWs)   bands (ev):

   -68.2864 -42.0906 -42.0906 -41.9778 -19.1901 -14.3851 -10.1735  -7.8906
    -7.8906  -4.3762  -4.3762  -3.1827  -2.7155  -2.2982  -2.2982  -1.9494

          k = 0.0000 0.2887 0.0000 (  7011 PWs)   bands (ev):

   -68.2864 -42.0898 -42.0873 -41.9795 -19.1043 -14.3373 -10.0953  -8.4684
    -7.8402  -4.6595  -4.6076  -3.2983  -2.9754  -2.7155  -2.6905  -1.7227

          k = 0.0000-0.5774 0.0000 (  7022 PWs)   bands (ev):

   -68.2863 -42.0904 -42.0885 -41.9791 -19.0159 -14.2883 -10.0048  -8.9347
    -7.7914  -4.9530  -4.7630  -3.5623  -3.3851  -3.0974  -2.9331  -1.4769

          k = 0.2500 0.4330 0.0000 (  7024 PWs)   bands (ev):

   -68.2863 -42.0912 -42.0888 -41.9780 -19.0164 -14.2883 -10.0061  -8.7149
    -8.0870  -5.1066  -4.4933  -3.6912  -3.3576  -3.1375  -2.9871  -1.5298

     the Fermi energy is    -3.3331 ev

!    total energy              =    -179.54032021 Ry
     estimated scf accuracy    <       0.00000012 Ry
     smearing contrib. (-TS)   =      -0.00217556 Ry
     internal energy E=F+TS    =    -179.53814466 Ry

     The total energy is F=E-TS. E is the sum of the following terms:
     one-electron contribution =    -910.58867545 Ry
     hartree contribution      =     452.49988821 Ry
     xc contribution           =     -31.63933501 Ry
     ewald contribution        =     310.18997759 Ry

     convergence has been achieved in  18 iterations

     negative rho (up, down):  6.415E-04 0.000E+00

     Forces acting on atoms (cartesian axes, Ry/au):

     atom    1 type  4   force =     0.00000000   -0.00000000    0.01798442
     atom    2 type  2   force =     0.00000000   -0.00000000   -0.02011684
     atom    3 type  3   force =     0.00000000    0.00000000   -0.01409890
     atom    4 type  1   force =     0.00000000   -0.00000000    0.01623132

     Total force =     0.034502     Total SCF correction =     0.000754


     Computing stress (Cartesian axis) and pressure


     negative rho (up, down):  6.415E-04 0.000E+00
          total   stress  (Ry/bohr**3)                   (kbar)     P=      -65.11
  -0.00056488   0.00000000   0.00000000          -83.10        0.00        0.00
   0.00000000  -0.00056488   0.00000000            0.00      -83.10        0.00
   0.00000000   0.00000000  -0.00019808            0.00        0.00      -29.14

     Energy error            =      1.4E-03 Ry
     Gradient error          =      2.0E-02 Ry/Bohr

     number of scf cycles    =   6
     number of bfgs steps    =   5

     energy             old  =    -179.5389093205 Ry
     energy             new  =    -179.5403202131 Ry

     CASE: energy            _new < energy            _old

     new trust radius        =       0.0803636598 bohr
     new conv_thr            =       0.0000001411 Ry


ATOMIC_POSITIONS (angstrom)
V                0.0000000000        0.0000000000        0.1770224610
C                2.1838020000        1.2608186700        0.8880597621
Se               2.1838020000        1.2608186700       -0.9492804076
H                2.1838020000        1.2608186700        1.9626384656



     Writing config-only to output data dir ./tmp/candidate_01_VCSe_H_relaxed.save/ :
     XML data file
     NEW-OLD atomic charge density approx. for the potential

     Check: negative core charge=   -0.000002

     negative rho (up, down):  8.561E-04 0.000E+00

     total cpu time spent up to now is     1198.8 secs

     per-process dynamical memory:   196.9 Mb

     Self-consistent Calculation

     iteration #  1     ecut=    35.00 Ry     beta= 0.10
     Davidson diagonalization with overlap
     ethr =  1.00E-06,  avg # of iterations = 12.5

     negative rho (up, down):  7.608E-04 0.000E+00

     total cpu time spent up to now is     1217.4 secs

     total energy              =    -179.54205585 Ry
     estimated scf accuracy    <       0.00073007 Ry

     iteration #  2     ecut=    35.00 Ry     beta= 0.10
     Davidson diagonalization with overlap
     ethr =  3.04E-06,  avg # of iterations =  1.0

     negative rho (up, down):  2.534E-03 0.000E+00

     total cpu time spent up to now is     1224.5 secs

     total energy              =    -179.54193733 Ry
     estimated scf accuracy    <       0.00057274 Ry

     iteration #  3     ecut=    35.00 Ry     beta= 0.10
     Davidson diagonalization with overlap
     ethr =  2.39E-06,  avg # of iterations =  1.0

     negative rho (up, down):  5.911E-03 0.000E+00

     total cpu time spent up to now is     1232.1 secs

     total energy              =    -179.54160611 Ry
     estimated scf accuracy    <       0.00027753 Ry

     iteration #  4     ecut=    35.00 Ry     beta= 0.10
     Davidson diagonalization with overlap
     ethr =  1.16E-06,  avg # of iterations =  2.5

     negative rho (up, down):  7.630E-03 0.000E+00

     total cpu time spent up to now is     1242.2 secs

     total energy              =    -179.54141008 Ry
     estimated scf accuracy    <       0.00006181 Ry

     iteration #  5     ecut=    35.00 Ry     beta= 0.10
     Davidson diagonalization with overlap
     ethr =  2.58E-07,  avg # of iterations =  2.8

     negative rho (up, down):  5.275E-03 0.000E+00

     total cpu time spent up to now is     1250.8 secs

     total energy              =    -179.54168334 Ry
     estimated scf accuracy    <       0.00002627 Ry

     iteration #  6     ecut=    35.00 Ry     beta= 0.10
     Davidson diagonalization with overlap
     ethr =  1.09E-07,  avg # of iterations =  3.2

     negative rho (up, down):  4.194E-03 0.000E+00

     total cpu time spent up to now is     1266.0 secs

     total energy              =    -179.54178870 Ry
     estimated scf accuracy    <       0.00002429 Ry

     iteration #  7     ecut=    35.00 Ry     beta= 0.10
     Davidson diagonalization with overlap
     ethr =  1.01E-07,  avg # of iterations =  2.0

     negative rho (up, down):  3.700E-03 0.000E+00

     total cpu time spent up to now is     1274.8 secs

     total energy              =    -179.54184026 Ry
     estimated scf accuracy    <       0.00000487 Ry

     iteration #  8     ecut=    35.00 Ry     beta= 0.10
     Davidson diagonalization with overlap
     ethr =  2.03E-08,  avg # of iterations =  4.0

     negative rho (up, down):  3.293E-03 0.000E+00

     total cpu time spent up to now is     1284.0 secs

     total energy              =    -179.54188145 Ry
     estimated scf accuracy    <       0.00000506 Ry

     iteration #  9     ecut=    35.00 Ry     beta= 0.10
     Davidson diagonalization with overlap
     ethr =  2.03E-08,  avg # of iterations =  1.8

     negative rho (up, down):  3.244E-03 0.000E+00

     total cpu time spent up to now is     1292.9 secs

     total energy              =    -179.54188563 Ry
     estimated scf accuracy    <       0.00000391 Ry

     iteration # 10     ecut=    35.00 Ry     beta= 0.10
     Davidson diagonalization with overlap
     ethr =  1.63E-08,  avg # of iterations =  2.0

     negative rho (up, down):  2.785E-03 0.000E+00

     total cpu time spent up to now is     1303.2 secs

     total energy              =    -179.54192696 Ry
     estimated scf accuracy    <       0.00000157 Ry

     iteration # 11     ecut=    35.00 Ry     beta= 0.10
     Davidson diagonalization with overlap
     ethr =  6.54E-09,  avg # of iterations =  2.8

     negative rho (up, down):  2.575E-03 0.000E+00

     total cpu time spent up to now is     1311.6 secs

     total energy              =    -179.54195206 Ry
     estimated scf accuracy    <       0.00000192 Ry

     iteration # 12     ecut=    35.00 Ry     beta= 0.10
     Davidson diagonalization with overlap
     ethr =  6.54E-09,  avg # of iterations =  2.8

     negative rho (up, down):  2.282E-03 0.000E+00

     total cpu time spent up to now is     1321.0 secs

     total energy              =    -179.54197438 Ry
     estimated scf accuracy    <       0.00000110 Ry

     iteration # 13     ecut=    35.00 Ry     beta= 0.10
     Davidson diagonalization with overlap
     ethr =  4.57E-09,  avg # of iterations =  2.0

     negative rho (up, down):  2.070E-03 0.000E+00

     total cpu time spent up to now is     1329.2 secs

     total energy              =    -179.54199267 Ry
     estimated scf accuracy    <       0.00000110 Ry

     iteration # 14     ecut=    35.00 Ry     beta= 0.10
     Davidson diagonalization with overlap
     ethr =  4.57E-09,  avg # of iterations =  2.2

     negative rho (up, down):  1.800E-03 0.000E+00

     total cpu time spent up to now is     1337.7 secs

     total energy              =    -179.54201171 Ry
     estimated scf accuracy    <       0.00000079 Ry

     iteration # 15     ecut=    35.00 Ry     beta= 0.10
     Davidson diagonalization with overlap
     ethr =  3.28E-09,  avg # of iterations =  3.2

     negative rho (up, down):  1.599E-03 0.000E+00

     total cpu time spent up to now is     1347.3 secs

     total energy              =    -179.54202120 Ry
     estimated scf accuracy    <       0.00000037 Ry

     iteration # 16     ecut=    35.00 Ry     beta= 0.10
     Davidson diagonalization with overlap
     ethr =  1.56E-09,  avg # of iterations =  2.0

     negative rho (up, down):  1.399E-03 0.000E+00

     total cpu time spent up to now is     1357.8 secs

     total energy              =    -179.54203680 Ry
     estimated scf accuracy    <       0.00000045 Ry

     iteration # 17     ecut=    35.00 Ry     beta= 0.10
     Davidson diagonalization with overlap
     ethr =  1.56E-09,  avg # of iterations =  5.0

     negative rho (up, down):  1.263E-03 0.000E+00

     total cpu time spent up to now is     1379.7 secs

     total energy              =    -179.54204225 Ry
     estimated scf accuracy    <       0.00000051 Ry

     iteration # 18     ecut=    35.00 Ry     beta= 0.10
     Davidson diagonalization with overlap
     ethr =  1.56E-09,  avg # of iterations =  1.5

     negative rho (up, down):  1.123E-03 0.000E+00

     total cpu time spent up to now is     1387.5 secs

     total energy              =    -179.54204812 Ry
     estimated scf accuracy    <       0.00000034 Ry

     iteration # 19     ecut=    35.00 Ry     beta= 0.10
     Davidson diagonalization with overlap
     ethr =  1.42E-09,  avg # of iterations =  4.0

     negative rho (up, down):  9.798E-04 0.000E+00

     total cpu time spent up to now is     1397.3 secs

     total energy              =    -179.54205417 Ry
     estimated scf accuracy    <       0.00000046 Ry

     iteration # 20     ecut=    35.00 Ry     beta= 0.10
     Davidson diagonalization with overlap
     ethr =  1.42E-09,  avg # of iterations =  4.2

     negative rho (up, down):  9.368E-04 0.000E+00

     total cpu time spent up to now is     1406.7 secs

     total energy              =    -179.54205516 Ry
     estimated scf accuracy    <       0.00000055 Ry

     iteration # 21     ecut=    35.00 Ry     beta= 0.10
     Davidson diagonalization with overlap
     ethr =  1.42E-09,  avg # of iterations =  2.0

     negative rho (up, down):  8.937E-04 0.000E+00

     total cpu time spent up to now is     1414.7 secs

     total energy              =    -179.54205735 Ry
     estimated scf accuracy    <       0.00000033 Ry

     iteration # 22     ecut=    35.00 Ry     beta= 0.10
     Davidson diagonalization with overlap
     ethr =  1.37E-09,  avg # of iterations =  3.8

     negative rho (up, down):  7.847E-04 0.000E+00

     total cpu time spent up to now is     1424.9 secs

     total energy              =    -179.54206110 Ry
     estimated scf accuracy    <       0.00000025 Ry

     iteration # 23     ecut=    35.00 Ry     beta= 0.10
     Davidson diagonalization with overlap
     ethr =  1.05E-09,  avg # of iterations =  4.2

     negative rho (up, down):  7.088E-04 0.000E+00

     total cpu time spent up to now is     1434.2 secs

     total energy              =    -179.54206280 Ry
     estimated scf accuracy    <       0.00000016 Ry

     iteration # 24     ecut=    35.00 Ry     beta= 0.10
     Davidson diagonalization with overlap
     ethr =  6.79E-10,  avg # of iterations =  2.2

     negative rho (up, down):  6.655E-04 0.000E+00

     total cpu time spent up to now is     1442.3 secs

     total energy              =    -179.54206409 Ry
     estimated scf accuracy    <       0.00000021 Ry

     iteration # 25     ecut=    35.00 Ry     beta= 0.10
     Davidson diagonalization with overlap
     ethr =  6.79E-10,  avg # of iterations =  3.2

     negative rho (up, down):  6.213E-04 0.000E+00

     total cpu time spent up to now is     1451.2 secs

     total energy              =    -179.54206489 Ry
     estimated scf accuracy    <       0.00000022 Ry

     iteration # 26     ecut=    35.00 Ry     beta= 0.10
     Davidson diagonalization with overlap
     ethr =  6.79E-10,  avg # of iterations =  1.2

     negative rho (up, down):  3.782E-04 0.000E+00

     total cpu time spent up to now is     1458.5 secs

     End of self-consistent calculation

          k = 0.0000 0.0000 0.0000 (  7019 PWs)   bands (ev):

   -68.2493 -42.0346 -42.0346 -41.9755 -19.0901 -14.3684 -10.1138  -7.7808
    -7.7808  -4.3482  -4.3482  -3.1587  -2.6755  -2.3214  -2.3214  -1.8526

          k = 0.0000 0.2887 0.0000 (  7011 PWs)   bands (ev):

   -68.2492 -42.0338 -42.0312 -41.9771 -19.0050 -14.3193 -10.0340  -8.3672
    -7.7348  -4.6446  -4.5747  -3.2793  -2.9095  -2.6855  -2.6332  -1.7093

          k = 0.0000-0.5774 0.0000 (  7022 PWs)   bands (ev):

   -68.2492 -42.0343 -42.0325 -41.9768 -18.9173 -14.2690  -9.9420  -8.8387
    -7.6911  -4.9436  -4.7230  -3.4886  -3.3665  -3.0246  -2.8981  -1.4866

          k = 0.2500 0.4330 0.0000 (  7024 PWs)   bands (ev):

   -68.2492 -42.0351 -42.0328 -41.9757 -18.9178 -14.2691  -9.9433  -8.6181
    -7.9891  -5.0688  -4.4938  -3.6066  -3.3411  -3.0891  -2.9184  -1.5492

     the Fermi energy is    -3.3172 ev

!    total energy              =    -179.54207166 Ry
     estimated scf accuracy    <       0.00000010 Ry
     smearing contrib. (-TS)   =      -0.00165254 Ry
     internal energy E=F+TS    =    -179.54041912 Ry

     The total energy is F=E-TS. E is the sum of the following terms:
     one-electron contribution =    -909.67493574 Ry
     hartree contribution      =     452.08221329 Ry
     xc contribution           =     -31.63177033 Ry
     ewald contribution        =     309.68407366 Ry

     convergence has been achieved in  26 iterations

     negative rho (up, down):  3.782E-04 0.000E+00

     Forces acting on atoms (cartesian axes, Ry/au):

     atom    1 type  4   force =     0.00000000   -0.00000000    0.01177788
     atom    2 type  2   force =     0.00000000    0.00000000   -0.01548939
[...]
    -7.6391  -4.3223  -4.3223  -3.1663  -2.6363  -2.4036  -2.4036  -1.7307

          k = 0.0000 0.2887 0.0000 (  7011 PWs)   bands (ev):

   -68.2272 -42.0011 -41.9985 -41.9716 -18.8653 -14.2916  -9.9512  -8.2360
    -7.5976  -4.6409  -4.5394  -3.2870  -2.8685  -2.6438  -2.6073  -1.7111

          k = 0.0000-0.5774 0.0000 (  7022 PWs)   bands (ev):

   -68.2271 -42.0015 -41.9998 -41.9712 -18.7784 -14.2385  -9.8585  -8.7141
    -7.5598  -4.9477  -4.6742  -3.4454  -3.3467  -2.9688  -2.8520  -1.5409

          k = 0.2500 0.4330 0.0000 (  7024 PWs)   bands (ev):

   -68.2271 -42.0023 -42.0001 -41.9701 -18.7789 -14.2386  -9.8599  -8.4923
    -7.8613  -5.0246  -4.5144  -3.5299  -3.3364  -3.0261  -2.8696  -1.6200

     the Fermi energy is    -3.3143 ev

!    total energy              =    -179.54331238 Ry
     estimated scf accuracy    <       0.00000012 Ry
     smearing contrib. (-TS)   =      -0.00143058 Ry
     internal energy E=F+TS    =    -179.54188180 Ry

     The total energy is F=E-TS. E is the sum of the following terms:
     one-electron contribution =    -907.62661660 Ry
     hartree contribution      =     451.09810688 Ry
     xc contribution           =     -31.61510451 Ry
     ewald contribution        =     308.60173243 Ry

     convergence has been achieved in  32 iterations

     negative rho (up, down):  2.240E-04 0.000E+00

     Forces acting on atoms (cartesian axes, Ry/au):

     atom    1 type  4   force =     0.00000000   -0.00000000    0.00039235
     atom    2 type  2   force =     0.00000000    0.00000000   -0.00290133
     atom    3 type  3   force =     0.00000000    0.00000000   -0.00306588
     atom    4 type  1   force =     0.00000000   -0.00000000    0.00557485

     Total force =     0.007004     Total SCF correction =     0.000242


     Computing stress (Cartesian axis) and pressure


     negative rho (up, down):  2.240E-04 0.000E+00
          total   stress  (Ry/bohr**3)                   (kbar)     P=      -67.79
  -0.00058458   0.00000000   0.00000000          -85.99        0.00        0.00
   0.00000000  -0.00058458   0.00000000            0.00      -85.99        0.00
   0.00000000   0.00000000  -0.00021333            0.00        0.00      -31.38

     Energy error            =      1.2E-03 Ry
     Gradient error          =      5.6E-03 Ry/Bohr

     number of scf cycles    =   8
     number of bfgs steps    =   7

     energy             old  =    -179.5420716637 Ry
     energy             new  =    -179.5433123810 Ry

     CASE: energy            _new < energy            _old

     new trust radius        =       0.0091550306 bohr
     new conv_thr            =       0.0000000557 Ry


ATOMIC_POSITIONS (angstrom)
V                0.0000000000        0.0000000000        0.2439931030
C                2.1838020000        1.2608186700        0.8663945501
Se               2.1838020000        1.2608186700       -0.9836936891
H                2.1838020000        1.2608186700        1.9517463171



     Writing config-only to output data dir ./tmp/candidate_01_VCSe_H_relaxed.save/ :
     XML data file
     NEW-OLD atomic charge density approx. for the potential

     Check: negative core charge=   -0.000002

     negative rho (up, down):  2.224E-04 0.000E+00

     total cpu time spent up to now is     1778.4 secs

     per-process dynamical memory:   196.9 Mb

     Self-consistent Calculation

     iteration #  1     ecut=    35.00 Ry     beta= 0.10
     Davidson diagonalization with overlap
     ethr =  1.00E-06,  avg # of iterations =  5.8

     Threshold (ethr) on eigenvalues was too large:
     Diagonalizing with lowered threshold

     Davidson diagonalization with overlap
     ethr =  5.75E-08,  avg # of iterations =  3.2

     negative rho (up, down):  2.223E-04 0.000E+00

     total cpu time spent up to now is     1796.3 secs

     total energy              =    -179.54334726 Ry
     estimated scf accuracy    <       0.00001641 Ry

     iteration #  2     ecut=    35.00 Ry     beta= 0.10
     Davidson diagonalization with overlap
     ethr =  6.84E-08,  avg # of iterations =  1.0

     negative rho (up, down):  4.142E-04 0.000E+00

     total cpu time spent up to now is     1802.9 secs

     total energy              =    -179.54334021 Ry
     estimated scf accuracy    <       0.00001377 Ry

     iteration #  3     ecut=    35.00 Ry     beta= 0.10
     Davidson diagonalization with overlap
     ethr =  5.74E-08,  avg # of iterations =  2.0

     negative rho (up, down):  3.234E-04 0.000E+00

     total cpu time spent up to now is     1811.3 secs

     total energy              =    -179.54334393 Ry
     estimated scf accuracy    <       0.00000269 Ry

     iteration #  4     ecut=    35.00 Ry     beta= 0.10
     Davidson diagonalization with overlap
     ethr =  1.12E-08,  avg # of iterations =  1.5

     negative rho (up, down):  3.250E-04 0.000E+00

     total cpu time spent up to now is     1818.6 secs

     total energy              =    -179.54334394 Ry
     estimated scf accuracy    <       0.00000127 Ry

     iteration #  5     ecut=    35.00 Ry     beta= 0.10
     Davidson diagonalization with overlap
     ethr =  5.30E-09,  avg # of iterations =  1.5

     negative rho (up, down):  3.742E-04 0.000E+00

     total cpu time spent up to now is     1825.6 secs

     total energy              =    -179.54334328 Ry
     estimated scf accuracy    <       0.00000045 Ry

     iteration #  6     ecut=    35.00 Ry     beta= 0.10
     Davidson diagonalization with overlap
     ethr =  1.89E-09,  avg # of iterations =  2.2

     negative rho (up, down):  3.306E-04 0.000E+00

     total cpu time spent up to now is     1834.5 secs

     total energy              =    -179.54334369 Ry
     estimated scf accuracy    <       0.00000045 Ry

     iteration #  7     ecut=    35.00 Ry     beta= 0.10
     Davidson diagonalization with overlap
     ethr =  1.88E-09,  avg # of iterations =  2.0

     negative rho (up, down):  3.095E-04 0.000E+00

     total cpu time spent up to now is     1842.4 secs

     total energy              =    -179.54334408 Ry
     estimated scf accuracy    <       0.00000008 Ry

     iteration #  8     ecut=    35.00 Ry     beta= 0.10
     Davidson diagonalization with overlap
     ethr =  3.17E-10,  avg # of iterations =  4.2

     negative rho (up, down):  2.943E-04 0.000E+00

     total cpu time spent up to now is     1851.9 secs

     total energy              =    -179.54334429 Ry
     estimated scf accuracy    <       0.00000008 Ry

     iteration #  9     ecut=    35.00 Ry     beta= 0.10
     Davidson diagonalization with overlap
     ethr =  3.16E-10,  avg # of iterations =  1.2

     negative rho (up, down):  2.789E-04 0.000E+00

     total cpu time spent up to now is     1858.3 secs

     total energy              =    -179.54334449 Ry
     estimated scf accuracy    <       0.00000008 Ry

     iteration # 10     ecut=    35.00 Ry     beta= 0.10
     Davidson diagonalization with overlap
     ethr =  3.16E-10,  avg # of iterations =  2.2

     negative rho (up, down):  2.199E-04 0.000E+00

     total cpu time spent up to now is     1865.7 secs

     End of self-consistent calculation

          k = 0.0000 0.0000 0.0000 (  7019 PWs)   bands (ev):

   -68.2229 -41.9971 -41.9971 -41.9656 -18.9156 -14.3258 -10.0112  -7.6123
    -7.6123  -4.3166  -4.3166  -3.1623  -2.6228  -2.4068  -2.4068  -1.7178

          k = 0.0000 0.2887 0.0000 (  7011 PWs)   bands (ev):

   -68.2228 -41.9962 -41.9936 -41.9672 -18.8312 -14.2735  -9.9303  -8.2113
    -7.5713  -4.6371  -4.5326  -3.2836  -2.8615  -2.6365  -2.6020  -1.7085

          k = 0.0000-0.5774 0.0000 (  7022 PWs)   bands (ev):

   -68.2228 -41.9966 -41.9949 -41.9669 -18.7441 -14.2200  -9.8377  -8.6906
    -7.5340  -4.9442  -4.6658  -3.4388  -3.3394  -2.9606  -2.8462  -1.5433

          k = 0.2500 0.4330 0.0000 (  7024 PWs)   bands (ev):

   -68.2228 -41.9974 -41.9952 -41.9658 -18.7446 -14.2200  -9.8390  -8.4684
    -7.8364  -5.0165  -4.5121  -3.5193  -3.3322  -3.0182  -2.8619  -1.6239

     the Fermi energy is    -3.3097 ev

!    total energy              =    -179.54334520 Ry
     estimated scf accuracy    <       0.00000005 Ry
     smearing contrib. (-TS)   =      -0.00143633 Ry
     internal energy E=F+TS    =    -179.54190887 Ry

     The total energy is F=E-TS. E is the sum of the following terms:
     one-electron contribution =    -907.19072525 Ry
     hartree contribution      =     450.88270284 Ry
     xc contribution           =     -31.60926411 Ry
     ewald contribution        =     308.37537764 Ry

     convergence has been achieved in  10 iterations

     negative rho (up, down):  2.199E-04 0.000E+00

     Forces acting on atoms (cartesian axes, Ry/au):

     atom    1 type  4   force =     0.00000000   -0.00000000   -0.00026202
     atom    2 type  2   force =     0.00000000   -0.00000000   -0.00129463
     atom    3 type  3   force =     0.00000000    0.00000000    0.00010175
     atom    4 type  1   force =     0.00000000    0.00000000    0.00145490

     Total force =     0.001968     Total SCF correction =     0.001162
     SCF correction compared to forces is large: reduce conv_thr to get better values


     Computing stress (Cartesian axis) and pressure


     negative rho (up, down):  2.199E-04 0.000E+00
          total   stress  (Ry/bohr**3)                   (kbar)     P=      -68.37
  -0.00058559   0.00000000   0.00000000          -86.14        0.00        0.00
   0.00000000  -0.00058559  -0.00000000            0.00      -86.14       -0.00
   0.00000000  -0.00000000  -0.00022318            0.00       -0.00      -32.83

     Energy error            =      3.3E-05 Ry
     Gradient error          =      1.5E-03 Ry/Bohr

     number of scf cycles    =   9
     number of bfgs steps    =   8

     energy             old  =    -179.5433123810 Ry
     energy             new  =    -179.5433451982 Ry

     CASE: energy            _new < energy            _old

     new trust radius        =       0.0026127109 bohr
     new conv_thr            =       0.0000000100 Ry


ATOMIC_POSITIONS (angstrom)
V                0.0000000000        0.0000000000        0.2426105159
C                2.1838020000        1.2608186700        0.8665875643
Se               2.1838020000        1.2608186700       -0.9836354742
H                2.1838020000        1.2608186700        1.9528776751



     Writing config-only to output data dir ./tmp/candidate_01_VCSe_H_relaxed.save/ :
     XML data file
     NEW-OLD atomic charge density approx. for the potential

     Check: negative core charge=   -0.000002

     negative rho (up, down):  2.209E-04 0.000E+00

     total cpu time spent up to now is     1881.4 secs

     per-process dynamical memory:   196.9 Mb

     Self-consistent Calculation

     iteration #  1     ecut=    35.00 Ry     beta= 0.10
     Davidson diagonalization with overlap
     ethr =  1.00E-06,  avg # of iterations =  5.0

     Threshold (ethr) on eigenvalues was too large:
     Diagonalizing with lowered threshold

     Davidson diagonalization with overlap
     ethr =  6.54E-09,  avg # of iterations =  4.0

     negative rho (up, down):  2.207E-04 0.000E+00

     total cpu time spent up to now is     1898.9 secs

     total energy              =    -179.54334696 Ry
     estimated scf accuracy    <       0.00000151 Ry

     iteration #  2     ecut=    35.00 Ry     beta= 0.10
     Davidson diagonalization with overlap
     ethr =  6.29E-09,  avg # of iterations =  1.0

     negative rho (up, down):  2.271E-04 0.000E+00

     total cpu time spent up to now is     1905.9 secs

     total energy              =    -179.54334674 Ry
     estimated scf accuracy    <       0.00000126 Ry

     iteration #  3     ecut=    35.00 Ry     beta= 0.10
     Davidson diagonalization with overlap
     ethr =  5.24E-09,  avg # of iterations =  1.0

     negative rho (up, down):  2.285E-04 0.000E+00

     total cpu time spent up to now is     1912.1 secs

     total energy              =    -179.54334675 Ry
     estimated scf accuracy    <       0.00000059 Ry

     iteration #  4     ecut=    35.00 Ry     beta= 0.10
     Davidson diagonalization with overlap
     ethr =  2.46E-09,  avg # of iterations =  1.0

     negative rho (up, down):  2.540E-04 0.000E+00

     total cpu time spent up to now is     1918.2 secs

     total energy              =    -179.54334635 Ry
     estimated scf accuracy    <       0.00000035 Ry

     iteration #  5     ecut=    35.00 Ry     beta= 0.10
     Davidson diagonalization with overlap
     ethr =  1.45E-09,  avg # of iterations =  2.5

     negative rho (up, down):  2.453E-04 0.000E+00

     total cpu time spent up to now is     1926.7 secs

     total energy              =    -179.54334649 Ry
     estimated scf accuracy    <       0.00000010 Ry

     iteration #  6     ecut=    35.00 Ry     beta= 0.10
     Davidson diagonalization with overlap
     ethr =  4.13E-10,  avg # of iterations =  2.8

     negative rho (up, down):  2.369E-04 0.000E+00

     total cpu time spent up to now is     1935.0 secs

     total energy              =    -179.54334660 Ry
     estimated scf accuracy    <       0.00000007 Ry

     iteration #  7     ecut=    35.00 Ry     beta= 0.10
     Davidson diagonalization with overlap
     ethr =  3.11E-10,  avg # of iterations =  1.5

     negative rho (up, down):  2.331E-04 0.000E+00

     total cpu time spent up to now is     1941.6 secs

     total energy              =    -179.54334667 Ry
     estimated scf accuracy    <       0.00000002 Ry

     iteration #  8     ecut=    35.00 Ry     beta= 0.10
     Davidson diagonalization with overlap
     ethr =  7.42E-11,  avg # of iterations =  3.2

     negative rho (up, down):  2.304E-04 0.000E+00

     total cpu time spent up to now is     1949.8 secs

     total energy              =    -179.54334670 Ry
     estimated scf accuracy    <       0.00000002 Ry

     iteration #  9     ecut=    35.00 Ry     beta= 0.10
     Davidson diagonalization with overlap
     ethr =  7.42E-11,  avg # of iterations =  1.8

     negative rho (up, down):  2.199E-04 0.000E+00

     total cpu time spent up to now is     1957.2 secs

     End of self-consistent calculation

          k = 0.0000 0.0000 0.0000 (  7019 PWs)   bands (ev):

   -68.2214 -41.9956 -41.9956 -41.9642 -18.9145 -14.3205 -10.0090  -7.6118
    -7.6118  -4.3155  -4.3155  -3.1598  -2.6211  -2.4036  -2.4036  -1.7180

          k = 0.0000 0.2887 0.0000 (  7011 PWs)   bands (ev):

   -68.2214 -41.9947 -41.9921 -41.9658 -18.8300 -14.2682  -9.9280  -8.2107
    -7.5706  -4.6355  -4.5316  -3.2814  -2.8600  -2.6356  -2.6002  -1.7069

          k = 0.0000-0.5774 0.0000 (  7022 PWs)   bands (ev):

   -68.2213 -41.9951 -41.9934 -41.9655 -18.7429 -14.2146  -9.8354  -8.6900
    -7.5333  -4.9426  -4.6651  -3.4371  -3.3380  -2.9594  -2.8456  -1.5407

          k = 0.2500 0.4330 0.0000 (  7024 PWs)   bands (ev):

   -68.2213 -41.9959 -41.9937 -41.9644 -18.7434 -14.2147  -9.8368  -8.4678
    -7.8357  -5.0157  -4.5101  -3.5183  -3.3306  -3.0177  -2.8604  -1.6210

     the Fermi energy is    -3.3080 ev

!    total energy              =    -179.54334680 Ry
     estimated scf accuracy    <          4.9E-09 Ry
     smearing contrib. (-TS)   =      -0.00143311 Ry
     internal energy E=F+TS    =    -179.54191370 Ry

     The total energy is F=E-TS. E is the sum of the following terms:
     one-electron contribution =    -907.18903346 Ry
     hartree contribution      =     450.88136022 Ry
     xc contribution           =     -31.60849669 Ry
     ewald contribution        =     308.37425624 Ry

     convergence has been achieved in   9 iterations

     negative rho (up, down):  2.199E-04 0.000E+00

     Forces acting on atoms (cartesian axes, Ry/au):

     atom    1 type  4   force =     0.00000000    0.00000000    0.00007986
     atom    2 type  2   force =     0.00000000    0.00000000   -0.00032093
     atom    3 type  3   force =     0.00000000    0.00000000    0.00015926
     atom    4 type  1   force =     0.00000000   -0.00000000    0.00008181

     Total force =     0.000376     Total SCF correction =     0.000175
     SCF correction compared to forces is large: reduce conv_thr to get better values


     Computing stress (Cartesian axis) and pressure


     negative rho (up, down):  2.199E-04 0.000E+00
          total   stress  (Ry/bohr**3)                   (kbar)     P=      -68.47
  -0.00058566   0.00000000   0.00000000          -86.15        0.00        0.00
   0.00000000  -0.00058566   0.00000000            0.00      -86.15        0.00
   0.00000000   0.00000000  -0.00022497            0.00        0.00      -33.09

     Energy error            =      1.6E-06 Ry
     Gradient error          =      3.2E-04 Ry/Bohr

     bfgs converged in  10 scf cycles and   9 bfgs steps
     (criteria: energy <  1.0E-04 Ry, force <  1.0E-03 Ry/Bohr)

     End of BFGS Geometry Optimization

     Final energy             =    -179.5433468023 Ry

     File ./tmp/candidate_01_VCSe_H_relaxed.bfgs deleted, as requested
Begin final coordinates

ATOMIC_POSITIONS (angstrom)
V                0.0000000000        0.0000000000        0.2426105159
C                2.1838020000        1.2608186700        0.8665875643
Se               2.1838020000        1.2608186700       -0.9836354742
H                2.1838020000        1.2608186700        1.9528776751
End final coordinates



     Writing all to output data dir ./tmp/candidate_01_VCSe_H_relaxed.save/ :
     XML data file, charge density, pseudopotentials, collected wavefunctions

     init_run     :    276.53s CPU     20.38s WALL (       1 calls)
     electrons    :  21975.73s CPU   1790.16s WALL (      10 calls)
     update_pot   :     29.32s CPU      2.06s WALL (       9 calls)
     forces       :    120.12s CPU     21.53s WALL (      10 calls)
     stress       :    367.67s CPU    125.68s WALL (      10 calls)

     Called by init_run:
     wfcinit      :     22.48s CPU      1.45s WALL (       1 calls)
     potinit      :     65.85s CPU      4.35s WALL (       1 calls)
     hinit0       :    185.78s CPU     12.66s WALL (       1 calls)

     Called by electrons:
     c_bands      :  16662.29s CPU   1047.57s WALL (     190 calls)
     sum_band     :   3267.51s CPU    374.16s WALL (     190 calls)
     v_of_rho     :    453.93s CPU     30.13s WALL (     198 calls)
     newd         :    449.04s CPU    277.40s WALL (     198 calls)
     mix_rho      :   1142.78s CPU     72.07s WALL (     190 calls)

     Called by c_bands:
     init_us_2    :     99.58s CPU      7.02s WALL (    1604 calls)
     cegterg      :  16528.14s CPU   1037.33s WALL (     760 calls)

     Called by *egterg:
     cdiaghg      :     96.47s CPU      5.66s WALL (    2831 calls)
     h_psi        :  13244.61s CPU    831.43s WALL (    2879 calls)
     s_psi        :    407.85s CPU     25.83s WALL (    2879 calls)
     g_psi        :      6.15s CPU      1.08s WALL (    2115 calls)

     Called by h_psi:
     h_psi:calbec :    176.34s CPU      9.83s WALL (    2879 calls)
     vloc_psi     :  12029.00s CPU    759.52s WALL (    2879 calls)
                                        0.00s GPU  (    2879 calls)
     add_vuspsi   :    448.46s CPU     25.86s WALL (    2879 calls)

     General routines
     calbec       :    228.76s CPU     13.48s WALL (    4319 calls)
     fft          :    344.66s CPU     22.93s WALL (    2815 calls)
     ffts         :    414.06s CPU     25.77s WALL (   22224 calls)
     fftw         :  12620.21s CPU    797.09s WALL (   71036 calls)
     interpolate  :     88.36s CPU      5.64s WALL (     198 calls)

     Parallel routines

     PWSCF        :      6h19m CPU  32m51.63s WALL


   This run was terminated on:  15:29:17  10May2026            

=------------------------------------------------------------------------------=
   JOB DONE.
=------------------------------------------------------------------------------=
