
     Program PHONON v.7.5 starts on 10May2026 at 15:30:58 

     This program is part of the open-source Quantum ESPRESSO suite
     for quantum simulation of materials; please cite
         "P. Giannozzi et al., J. Phys.:Condens. Matter 21 395502 (2009);
         "P. Giannozzi et al., J. Phys.:Condens. Matter 29 465901 (2017);
         "P. Giannozzi et al., J. Chem. Phys. 152 154105 (2020);
          URL http://www.quantum-espresso.org", 
     in publications or presentations arising from this work. More details at
     http://www.quantum-espresso.org/quote

     Parallel version (MPI & OpenMP), running on      16 processor cores
     Number of MPI processes:                 1
     Threads/MPI process:                    16

     MPI processes distributed on     1 nodes
     7001 MiB available memory on the printing compute node when the environment starts

     Reading input from candidate_01_VCSe/04_gamma_phonon.in
      Title line not specified: using 'default'.

     Reading xml data from directory:

     ./tmp/candidate_01_VCSe.save/

     Subspace diagonalization in iterative solution of the eigenvalue problem:
     a serial algorithm will be used

     file V.pbe-spnl-rrkjus_psl.1.0.0.UPF: wavefunction(s)  3P 3D renormalized

     IMPORTANT: XC functional enforced from input :
     Exchange-correlation= PBE
                           (   1   4   3   4   0   0   0)
     Any further DFT definition will be discarded
     Please, verify this is what you really want


     G-vector sticks info
     --------------------
     sticks:   dense  smooth     PW     G-vecs:    dense   smooth      PW
     Sum        1303     661    199               158551    56169    8739

     Using Slab Decomposition

 ----2D----2D----2D----2D----2D----2D----2D----2D----2D----2D----2D----2D
  The code is running with the 2D cutoff
  Please refer to:
  Sohier, T., Calandra, M., & Mauri, F. (2017), 
  Density functional perturbation theory for gated two-dimensional heterostructures:
  Theoretical developments and application to flexural phonons in graphene.
  Physical Review B, 96(7), 75448. https://doi.org/10.1103/PhysRevB.96.075448
 ----2D----2D----2D----2D----2D----2D----2D----2D----2D----2D----2D----2D

     Check: negative core charge=   -0.000005

     negative rho (up, down):  6.436E-01 0.000E+00
     Reading collected, re-writing distributed wavefunctions in ./tmp/

     Number and degeneracy of irreps per q-point
       N         xq(1)         xq(2)         xq(3)   N irreps
       1   0.000000000   0.000000000   0.000000000       6
        1   1   1   2   2   2

     Calculation of q =    0.0000000   0.0000000   0.0000000

     default                                                                    

     bravais-lattice index     =            0
     lattice parameter (alat)  =       8.2536  a.u.
     unit-cell volume          =    2006.7175 (a.u.)^3
     number of atoms/cell      =            3
     number of atomic types    =            3
     kinetic-energy cut-off    =      35.0000  Ry
     charge density cut-off    =     280.0000  Ry
     convergence threshold     =      1.0E-14
     beta                      =       0.7000
     number of iterations used =            4
     Exchange-correlation= PBE
                           (   1   4   3   4   0   0   0)


     celldm(1)=    8.25358  celldm(2)=    0.00000  celldm(3)=    0.00000
     celldm(4)=    0.00000  celldm(5)=    0.00000  celldm(6)=    0.00000

     crystal axes: (cart. coord. in units of alat)
               a(1) = (  1.0000  0.0000  0.0000 )  
               a(2) = ( -0.5000  0.8660  0.0000 )  
               a(3) = (  0.0000  0.0000  4.1213 )  

     reciprocal axes: (cart. coord. in units 2 pi/alat)
               b(1) = (  1.0000  0.5774 -0.0000 )  
               b(2) = (  0.0000  1.1547  0.0000 )  
               b(3) = (  0.0000 -0.0000  0.2426 )  


     Atoms inside the unit cell: 

     Cartesian axes

     site n.  atom      mass           positions (alat units)
        1  V      50.9420   tau(    1) = (    0.00000    0.00000    0.00430  )
        2  C      12.0110   tau(    2) = (    0.50000    0.28868    0.22402  )
        3  Se     78.9710   tau(    3) = (    0.50000    0.28868   -0.22832  )

     Computing dynamical matrix for 
                    q = (   0.0000000   0.0000000   0.0000000 )

      7 Sym.Ops. (with q -> -q+G )


     G cutoff =  483.1506  ( 158551 G-vectors)     FFT grid: ( 45, 45,192)
     G cutoff =  241.5753  (  56169 G-vectors)  smooth grid: ( 32, 32,135)

     number of k points=     4  Methfessel-Paxton smearing, width (Ry)=  0.0200
                       cart. coord. in units 2pi/alat
        k(    1) = (   0.0000000   0.0000000   0.0000000), wk =   0.1250000
        k(    2) = (   0.0000000   0.2886751   0.0000000), wk =   0.7500000
        k(    3) = (   0.0000000  -0.5773503   0.0000000), wk =   0.3750000
        k(    4) = (   0.2500000   0.4330127   0.0000000), wk =   0.7500000

     PseudoPot. # 1 for C  read from file:
     ./pseudos/C.pbe-n-rrkjus_psl.1.0.0.UPF
     MD5 check sum: 1fdd950c42eb37d8afe3dd2f8d12311e
     Pseudo is Ultrasoft + core correction, Zval =  4.0
     Generated using &quot;atomic&quot; code by A. Dal Corso  v.6.3MaX
     Using radial grid of 1073 points,  4 beta functions with: 
                l(1) =   0
                l(2) =   0
                l(3) =   1
                l(4) =   1
     Q(r) pseudized with 0 coefficients 


     PseudoPot. # 2 for Se read from file:
     ./pseudos/Se.pbe-n-rrkjus_psl.1.0.0.UPF
     MD5 check sum: 8e2a6847b5cb9faee9497ebb573e71ea
     Pseudo is Ultrasoft + core correction, Zval =  6.0
     Generated using &quot;atomic&quot; code by A. Dal Corso  v.6.3
     Using radial grid of 1211 points,  4 beta functions with: 
                l(1) =   0
                l(2) =   0
                l(3) =   1
                l(4) =   1
     Q(r) pseudized with 0 coefficients 


     PseudoPot. # 3 for V  read from file:
     ./pseudos/V.pbe-spnl-rrkjus_psl.1.0.0.UPF
     MD5 check sum: 79b3eb63147daf0b665d9f1bcc691206
     Pseudo is Ultrasoft + core correction, Zval = 13.0
     Generated using &quot;atomic&quot; code by A. Dal Corso  v.6.2.2
     Using radial grid of 1181 points,  6 beta functions with: 
                l(1) =   0
                l(2) =   0
                l(3) =   1
                l(4) =   1
                l(5) =   2
                l(6) =   2
     Q(r) pseudized with 0 coefficients 


     Mode symmetry, C_3v (3m)   point group:


     Atomic displacements:
     There are    6 irreducible representations

     Representation     1      1 modes -  To be done

     Representation     2      1 modes -  To be done

     Representation     3      1 modes -  To be done

     Representation     4      2 modes -  To be done

     Representation     5      2 modes -  To be done

     Representation     6      2 modes -  To be done



     Alpha used in Ewald sum =   2.7000

     negative rho (up, down):  6.436E-01 0.000E+00
     PHONON       :   8m 3.28s CPU     34.05s WALL



     Representation #   1 mode #   1

     Self-consistent Calculation

     Pert. #  1: Fermi energy shift (Ry) =     2.2953E-01     0.0000E+00

      iter #   1 total cpu time :    62.4 secs   av.it.:  12.2
      thresh= 1.000E-02 alpha_mix =  0.700 |ddv_scf|^2 =  8.948E-04

     Pert. #  1: Fermi energy shift (Ry) =     1.7920E-01     0.0000E+00

      iter #   2 total cpu time :   104.3 secs   av.it.:  19.0
      thresh= 2.991E-03 alpha_mix =  0.700 |ddv_scf|^2 =  1.330E-02

     Pert. #  1: Fermi energy shift (Ry) =    -3.1515E+00     0.0000E+00

      iter #   3 total cpu time :   140.0 secs   av.it.:  17.2
      thresh= 1.000E-02 alpha_mix =  0.700 |ddv_scf|^2 =  1.425E-03

     Pert. #  1: Fermi energy shift (Ry) =     1.4785E+01     0.0000E+00

      iter #   4 total cpu time :   181.5 secs   av.it.:  20.2
      thresh= 3.775E-03 alpha_mix =  0.700 |ddv_scf|^2 =  9.379E-03

     Pert. #  1: Fermi energy shift (Ry) =     5.0120E-01     0.0000E+00

      iter #   5 total cpu time :   220.1 secs   av.it.:  17.8
      thresh= 9.684E-03 alpha_mix =  0.700 |ddv_scf|^2 =  1.698E-04

     Pert. #  1: Fermi energy shift (Ry) =    -6.9415E-01     0.0000E+00

      iter #   6 total cpu time :   257.8 secs   av.it.:  18.2
      thresh= 1.303E-03 alpha_mix =  0.700 |ddv_scf|^2 =  1.496E-05

     Pert. #  1: Fermi energy shift (Ry) =    -4.4960E-02     0.0000E+00

      iter #   7 total cpu time :   295.5 secs   av.it.:  18.2
      thresh= 3.868E-04 alpha_mix =  0.700 |ddv_scf|^2 =  6.422E-08

     Pert. #  1: Fermi energy shift (Ry) =    -1.6973E-01     0.0000E+00

      iter #   8 total cpu time :   339.0 secs   av.it.:  20.2
      thresh= 2.534E-05 alpha_mix =  0.700 |ddv_scf|^2 =  1.673E-07

     Pert. #  1: Fermi energy shift (Ry) =    -9.6855E-02     0.0000E+00

      iter #   9 total cpu time :   378.0 secs   av.it.:  18.5
      thresh= 4.091E-05 alpha_mix =  0.700 |ddv_scf|^2 =  4.201E-09

     Pert. #  1: Fermi energy shift (Ry) =    -1.0891E-01     0.0000E+00

      iter #  10 total cpu time :   415.8 secs   av.it.:  18.5
      thresh= 6.482E-06 alpha_mix =  0.700 |ddv_scf|^2 =  3.231E-10

     Pert. #  1: Fermi energy shift (Ry) =    -1.0575E-01     0.0000E+00

      iter #  11 total cpu time :   456.0 secs   av.it.:  19.2
      thresh= 1.798E-06 alpha_mix =  0.700 |ddv_scf|^2 =  9.551E-11

     Pert. #  1: Fermi energy shift (Ry) =    -1.0720E-01     0.0000E+00

      iter #  12 total cpu time :   496.8 secs   av.it.:  18.0
      thresh= 9.773E-07 alpha_mix =  0.700 |ddv_scf|^2 =  5.677E-13

     Pert. #  1: Fermi energy shift (Ry) =    -1.0731E-01     0.0000E+00

      iter #  13 total cpu time :   534.3 secs   av.it.:  18.8
      thresh= 7.534E-08 alpha_mix =  0.700 |ddv_scf|^2 =  1.142E-12

     Pert. #  1: Fermi energy shift (Ry) =    -1.0714E-01     0.0000E+00

      iter #  14 total cpu time :   573.2 secs   av.it.:  18.2
      thresh= 1.068E-07 alpha_mix =  0.700 |ddv_scf|^2 =  1.288E-14

     Pert. #  1: Fermi energy shift (Ry) =    -1.0716E-01     0.0000E+00

      iter #  15 total cpu time :   609.6 secs   av.it.:  17.2
      thresh= 1.135E-08 alpha_mix =  0.700 |ddv_scf|^2 =  4.924E-17

     End of self-consistent calculation

     Convergence has been achieved 


     Representation #   2 mode #   2

     Self-consistent Calculation

     Pert. #  1: Fermi energy shift (Ry) =     8.1080E-01     0.0000E+00

      iter #   1 total cpu time :   637.3 secs   av.it.:  10.0
      thresh= 1.000E-02 alpha_mix =  0.700 |ddv_scf|^2 =  5.295E-05

     Pert. #  1: Fermi energy shift (Ry) =    -1.3798E+00     0.0000E+00

      iter #   2 total cpu time :   677.6 secs   av.it.:  19.8
      thresh= 7.277E-04 alpha_mix =  0.700 |ddv_scf|^2 =  1.736E-03

     Pert. #  1: Fermi energy shift (Ry) =    -1.5438E+00     0.0000E+00

      iter #   3 total cpu time :   766.0 secs   av.it.:  16.2
      thresh= 4.167E-03 alpha_mix =  0.700 |ddv_scf|^2 =  8.349E-05

     Pert. #  1: Fermi energy shift (Ry) =     3.0047E-01     0.0000E+00

      iter #   4 total cpu time :   804.6 secs   av.it.:  18.5
      thresh= 9.137E-04 alpha_mix =  0.700 |ddv_scf|^2 =  8.515E-06

     Pert. #  1: Fermi energy shift (Ry) =    -1.4082E-01     0.0000E+00

      iter #   5 total cpu time :   843.2 secs   av.it.:  18.5
      thresh= 2.918E-04 alpha_mix =  0.700 |ddv_scf|^2 =  8.581E-07

     Pert. #  1: Fermi energy shift (Ry) =    -4.1602E-03     0.0000E+00

      iter #   6 total cpu time :   882.5 secs   av.it.:  18.2
      thresh= 9.263E-05 alpha_mix =  0.700 |ddv_scf|^2 =  3.754E-08

     Pert. #  1: Fermi energy shift (Ry) =    -3.3030E-02     0.0000E+00

      iter #   7 total cpu time :   921.5 secs   av.it.:  18.5
      thresh= 1.938E-05 alpha_mix =  0.700 |ddv_scf|^2 =  8.095E-09

     Pert. #  1: Fermi energy shift (Ry) =    -8.4534E-03     0.0000E+00

      iter #   8 total cpu time :   960.9 secs   av.it.:  19.0
      thresh= 8.997E-06 alpha_mix =  0.700 |ddv_scf|^2 =  5.358E-09

     Pert. #  1: Fermi energy shift (Ry) =    -1.8580E-02     0.0000E+00

      iter #   9 total cpu time :  1000.0 secs   av.it.:  18.2
      thresh= 7.320E-06 alpha_mix =  0.700 |ddv_scf|^2 =  1.590E-11

     Pert. #  1: Fermi energy shift (Ry) =    -1.8217E-02     0.0000E+00

      iter #  10 total cpu time :  1038.8 secs   av.it.:  17.8
      thresh= 3.988E-07 alpha_mix =  0.700 |ddv_scf|^2 =  4.115E-13

     Pert. #  1: Fermi energy shift (Ry) =    -1.8006E-02     0.0000E+00

      iter #  11 total cpu time :  1079.3 secs   av.it.:  19.5
      thresh= 6.415E-08 alpha_mix =  0.700 |ddv_scf|^2 =  1.645E-13

     Pert. #  1: Fermi energy shift (Ry) =    -1.8043E-02     0.0000E+00

      iter #  12 total cpu time :  1116.8 secs   av.it.:  17.2
      thresh= 4.056E-08 alpha_mix =  0.700 |ddv_scf|^2 =  3.774E-14

     Pert. #  1: Fermi energy shift (Ry) =    -1.8056E-02     0.0000E+00

      iter #  13 total cpu time :  1162.2 secs   av.it.:  17.0
      thresh= 1.943E-08 alpha_mix =  0.700 |ddv_scf|^2 =  4.562E-15

     End of self-consistent calculation

     Convergence has been achieved 


     Representation #   3 mode #   3

     Self-consistent Calculation

     Pert. #  1: Fermi energy shift (Ry) =    -4.0321E-01     0.0000E+00

      iter #   1 total cpu time :  1187.8 secs   av.it.:   9.2
      thresh= 1.000E-02 alpha_mix =  0.700 |ddv_scf|^2 =  2.246E-05

     Pert. #  1: Fermi energy shift (Ry) =     8.0969E-01     0.0000E+00

      iter #   2 total cpu time :  1227.5 secs   av.it.:  19.5
      thresh= 4.740E-04 alpha_mix =  0.700 |ddv_scf|^2 =  8.766E-04

     Pert. #  1: Fermi energy shift (Ry) =    -3.8171E-01     0.0000E+00

      iter #   3 total cpu time :  1261.8 secs   av.it.:  17.0
      thresh= 2.961E-03 alpha_mix =  0.700 |ddv_scf|^2 =  4.811E-05

     Pert. #  1: Fermi energy shift (Ry) =     2.6291E-01     0.0000E+00

      iter #   4 total cpu time :  1300.9 secs   av.it.:  17.8
      thresh= 6.936E-04 alpha_mix =  0.700 |ddv_scf|^2 =  3.692E-06

     Pert. #  1: Fermi energy shift (Ry) =     1.7235E-01     0.0000E+00

      iter #   5 total cpu time :  1336.5 secs   av.it.:  16.8
      thresh= 1.921E-04 alpha_mix =  0.700 |ddv_scf|^2 =  3.708E-07

     Pert. #  1: Fermi energy shift (Ry) =     3.1076E-02     0.0000E+00

      iter #   6 total cpu time :  1373.8 secs   av.it.:  18.0
      thresh= 6.089E-05 alpha_mix =  0.700 |ddv_scf|^2 =  6.760E-09

     Pert. #  1: Fermi energy shift (Ry) =     3.5241E-02     0.0000E+00

      iter #   7 total cpu time :  1409.4 secs   av.it.:  16.0
      thresh= 8.222E-06 alpha_mix =  0.700 |ddv_scf|^2 =  6.062E-10

     Pert. #  1: Fermi energy shift (Ry) =     3.6182E-02     0.0000E+00

      iter #   8 total cpu time :  1446.1 secs   av.it.:  16.5
      thresh= 2.462E-06 alpha_mix =  0.700 |ddv_scf|^2 =  1.683E-10

     Pert. #  1: Fermi energy shift (Ry) =     3.4127E-02     0.0000E+00

      iter #   9 total cpu time :  1487.4 secs   av.it.:  18.2
      thresh= 1.297E-06 alpha_mix =  0.700 |ddv_scf|^2 =  1.093E-11

     Pert. #  1: Fermi energy shift (Ry) =     3.4563E-02     0.0000E+00

      iter #  10 total cpu time :  1526.3 secs   av.it.:  18.8
      thresh= 3.305E-07 alpha_mix =  0.700 |ddv_scf|^2 =  1.019E-12

     Pert. #  1: Fermi energy shift (Ry) =     3.4531E-02     0.0000E+00

      iter #  11 total cpu time :  1563.8 secs   av.it.:  17.2
      thresh= 1.010E-07 alpha_mix =  0.700 |ddv_scf|^2 =  1.349E-15

     End of self-consistent calculation

     Convergence has been achieved 


     Representation #   4 modes #   4   5

     Self-consistent Calculation

     Pert. #  1: Fermi energy shift (Ry) =     7.2280E-19     1.5673E-38
     Pert. #  2: Fermi energy shift (Ry) =    -4.3368E-19    -7.8366E-39

      iter #   1 total cpu time :  1601.3 secs   av.it.:   8.0
      thresh= 1.000E-02 alpha_mix =  0.700 |ddv_scf|^2 =  3.548E-08

     Pert. #  1: Fermi energy shift (Ry) =     5.7824E-19     2.3437E-41
     Pert. #  2: Fermi energy shift (Ry) =     1.4456E-19     2.8699E-42

      iter #   2 total cpu time :  1685.9 secs   av.it.:  20.2
      thresh= 1.884E-05 alpha_mix =  0.700 |ddv_scf|^2 =  3.821E-08

     Pert. #  1: Fermi energy shift (Ry) =     0.0000E+00    -6.1224E-41
     Pert. #  2: Fermi energy shift (Ry) =    -1.4456E-19     0.0000E+00

      iter #   3 total cpu time :  1762.1 secs   av.it.:  18.6
      thresh= 1.955E-05 alpha_mix =  0.700 |ddv_scf|^2 =  2.788E-09

     Pert. #  1: Fermi energy shift (Ry) =     1.4456E-19     6.1224E-41
     Pert. #  2: Fermi energy shift (Ry) =     0.0000E+00     0.0000E+00

      iter #   4 total cpu time :  1893.1 secs   av.it.:  18.1
      thresh= 5.280E-06 alpha_mix =  0.700 |ddv_scf|^2 =  1.456E-09

     Pert. #  1: Fermi energy shift (Ry) =     5.7824E-19     0.0000E+00
     Pert. #  2: Fermi energy shift (Ry) =     1.4456E-19    -3.0612E-41

      iter #   5 total cpu time :  1999.3 secs   av.it.:  17.9
      thresh= 3.816E-06 alpha_mix =  0.700 |ddv_scf|^2 =  8.077E-10

     Pert. #  1: Fermi energy shift (Ry) =     5.7824E-19     0.0000E+00
     Pert. #  2: Fermi energy shift (Ry) =    -2.8912E-19    -6.1224E-41

      iter #   6 total cpu time :  2069.9 secs   av.it.:  14.2
      thresh= 2.842E-06 alpha_mix =  0.700 |ddv_scf|^2 =  8.945E-10

     Pert. #  1: Fermi energy shift (Ry) =     4.3368E-19     0.0000E+00
     Pert. #  2: Fermi energy shift (Ry) =     0.0000E+00     9.1835E-41

      iter #   7 total cpu time :  2141.7 secs   av.it.:  17.2
      thresh= 2.991E-06 alpha_mix =  0.700 |ddv_scf|^2 =  4.956E-10

     Pert. #  1: Fermi energy shift (Ry) =     2.1684E-19     0.0000E+00
     Pert. #  2: Fermi energy shift (Ry) =     7.2280E-20     9.1835E-41

      iter #   8 total cpu time :  2218.9 secs   av.it.:  19.1
      thresh= 2.226E-06 alpha_mix =  0.700 |ddv_scf|^2 =  1.745E-10

     Pert. #  1: Fermi energy shift (Ry) =     4.3368E-19     0.0000E+00
     Pert. #  2: Fermi energy shift (Ry) =     2.5298E-19     9.1835E-41

      iter #   9 total cpu time :  2298.8 secs   av.it.:  18.4
      thresh= 1.321E-06 alpha_mix =  0.700 |ddv_scf|^2 =  9.447E-11

     Pert. #  1: Fermi energy shift (Ry) =     2.5298E-19     3.0612E-41
     Pert. #  2: Fermi energy shift (Ry) =     7.2280E-20     1.5306E-41

      iter #  10 total cpu time :  2417.3 secs   av.it.:  19.6
      thresh= 9.720E-07 alpha_mix =  0.700 |ddv_scf|^2 =  9.131E-11

     Pert. #  1: Fermi energy shift (Ry) =     4.3368E-19     0.0000E+00
     Pert. #  2: Fermi energy shift (Ry) =     2.8912E-19    -3.0612E-41

      iter #  11 total cpu time :  2497.8 secs   av.it.:  20.5
      thresh= 9.556E-07 alpha_mix =  0.700 |ddv_scf|^2 =  1.945E-12

     Pert. #  1: Fermi energy shift (Ry) =     3.7947E-19     0.0000E+00
     Pert. #  2: Fermi energy shift (Ry) =     1.8070E-19    -3.0612E-41

      iter #  12 total cpu time :  2574.5 secs   av.it.:  19.0
      thresh= 1.395E-07 alpha_mix =  0.700 |ddv_scf|^2 =  1.832E-13

     Pert. #  1: Fermi energy shift (Ry) =     4.8789E-19     0.0000E+00
     Pert. #  2: Fermi energy shift (Ry) =    -9.9385E-20    -3.0612E-41

      iter #  13 total cpu time :  2652.7 secs   av.it.:  19.1
      thresh= 4.280E-08 alpha_mix =  0.700 |ddv_scf|^2 =  1.167E-14

     Pert. #  1: Fermi energy shift (Ry) =     2.5298E-19     0.0000E+00
     Pert. #  2: Fermi energy shift (Ry) =    -6.3245E-20    -3.0612E-41

      iter #  14 total cpu time :  2736.8 secs   av.it.:  20.5
      thresh= 1.080E-08 alpha_mix =  0.700 |ddv_scf|^2 =  3.279E-15

     End of self-consistent calculation

     Convergence has been achieved 


     Representation #   5 modes #   6   7

     Self-consistent Calculation

     Pert. #  1: Fermi energy shift (Ry) =    -8.6736E-19     3.1347E-38
     Pert. #  2: Fermi energy shift (Ry) =    -1.4456E-18     3.1347E-38

      iter #   1 total cpu time :  2773.7 secs   av.it.:   7.9
      thresh= 1.000E-02 alpha_mix =  0.700 |ddv_scf|^2 =  3.074E-08

     Pert. #  1: Fermi energy shift (Ry) =     0.0000E+00     6.1224E-41
     Pert. #  2: Fermi energy shift (Ry) =    -2.8912E-19     6.1224E-41

      iter #   2 total cpu time :  2860.4 secs   av.it.:  20.5
      thresh= 1.753E-05 alpha_mix =  0.700 |ddv_scf|^2 =  4.631E-08

     Pert. #  1: Fermi energy shift (Ry) =    -2.8912E-19     3.0612E-41
     Pert. #  2: Fermi energy shift (Ry) =     1.4456E-19     3.0612E-41

      iter #   3 total cpu time :  2933.9 secs   av.it.:  18.6
      thresh= 2.152E-05 alpha_mix =  0.700 |ddv_scf|^2 =  2.947E-09

     Pert. #  1: Fermi energy shift (Ry) =    -2.8912E-19     3.0612E-41
     Pert. #  2: Fermi energy shift (Ry) =     1.4456E-19     3.0612E-41

      iter #   4 total cpu time :  3013.8 secs   av.it.:  19.0
      thresh= 5.429E-06 alpha_mix =  0.700 |ddv_scf|^2 =  1.033E-09

     Pert. #  1: Fermi energy shift (Ry) =     0.0000E+00     6.1224E-41
     Pert. #  2: Fermi energy shift (Ry) =    -7.2280E-19     6.1224E-41

      iter #   5 total cpu time :  3090.6 secs   av.it.:  17.1
      thresh= 3.214E-06 alpha_mix =  0.700 |ddv_scf|^2 =  1.055E-09

     Pert. #  1: Fermi energy shift (Ry) =     0.0000E+00     3.0612E-41
     Pert. #  2: Fermi energy shift (Ry) =    -4.3368E-19     3.0612E-41

      iter #   6 total cpu time :  3168.0 secs   av.it.:  18.1
      thresh= 3.248E-06 alpha_mix =  0.700 |ddv_scf|^2 =  1.201E-09

     Pert. #  1: Fermi energy shift (Ry) =    -2.8912E-19     3.0612E-41
     Pert. #  2: Fermi energy shift (Ry) =    -2.8912E-19     3.0612E-41

      iter #   7 total cpu time :  3241.8 secs   av.it.:  17.1
      thresh= 3.466E-06 alpha_mix =  0.700 |ddv_scf|^2 =  1.434E-09

     Pert. #  1: Fermi energy shift (Ry) =    -5.7824E-19     3.0612E-41
     Pert. #  2: Fermi energy shift (Ry) =    -4.3368E-19     3.0612E-41

      iter #   8 total cpu time :  3315.5 secs   av.it.:  17.9
      thresh= 3.787E-06 alpha_mix =  0.700 |ddv_scf|^2 =  1.566E-09

     Pert. #  1: Fermi energy shift (Ry) =    -8.6736E-19     3.0612E-41
     Pert. #  2: Fermi energy shift (Ry) =     1.4456E-19     3.0612E-41

      iter #   9 total cpu time :  3392.7 secs   av.it.:  19.2
      thresh= 3.957E-06 alpha_mix =  0.700 |ddv_scf|^2 =  4.791E-10

     Pert. #  1: Fermi energy shift (Ry) =    -8.6736E-19     3.0612E-41
     Pert. #  2: Fermi energy shift (Ry) =    -4.3368E-19     3.0612E-41

      iter #  10 total cpu time :  3475.7 secs   av.it.:  20.8
      thresh= 2.189E-06 alpha_mix =  0.700 |ddv_scf|^2 =  6.109E-11

     Pert. #  1: Fermi energy shift (Ry) =    -8.6736E-19     3.0612E-41
     Pert. #  2: Fermi energy shift (Ry) =     0.0000E+00     3.0612E-41

      iter #  11 total cpu time :  3552.1 secs   av.it.:  19.9
      thresh= 7.816E-07 alpha_mix =  0.700 |ddv_scf|^2 =  3.112E-12

     Pert. #  1: Fermi energy shift (Ry) =    -8.6736E-19     3.0612E-41
     Pert. #  2: Fermi energy shift (Ry) =     1.4456E-19     3.0612E-41

      iter #  12 total cpu time :  3642.9 secs   av.it.:  20.5
      thresh= 1.764E-07 alpha_mix =  0.700 |ddv_scf|^2 =  8.010E-14

     Pert. #  1: Fermi energy shift (Ry) =    -5.7824E-19     3.0612E-41
     Pert. #  2: Fermi energy shift (Ry) =    -1.7347E-18     3.0612E-41

      iter #  13 total cpu time :  3721.7 secs   av.it.:  21.4
      thresh= 2.830E-08 alpha_mix =  0.700 |ddv_scf|^2 =  4.159E-15

     End of self-consistent calculation

     Convergence has been achieved 


     Representation #   6 modes #   8   9

     Self-consistent Calculation

     Pert. #  1: Fermi energy shift (Ry) =    -3.9754E-19    -7.8366E-39
     Pert. #  2: Fermi energy shift (Ry) =    -1.9877E-19     0.0000E+00

      iter #   1 total cpu time :  3762.5 secs   av.it.:  10.6
      thresh= 1.000E-02 alpha_mix =  0.700 |ddv_scf|^2 =  2.615E-05

     Pert. #  1: Fermi energy shift (Ry) =     0.0000E+00     3.9183E-39
     Pert. #  2: Fermi energy shift (Ry) =     2.8912E-19    -3.9183E-39

      iter #   2 total cpu time :  3825.4 secs   av.it.:  17.6
      thresh= 5.114E-04 alpha_mix =  0.700 |ddv_scf|^2 =  3.474E-06

     Pert. #  1: Fermi energy shift (Ry) =     5.7824E-19     0.0000E+00
     Pert. #  2: Fermi energy shift (Ry) =     0.0000E+00    -6.1224E-41

      iter #   3 total cpu time :  3896.2 secs   av.it.:  19.0
      thresh= 1.864E-04 alpha_mix =  0.700 |ddv_scf|^2 =  2.233E-06

     Pert. #  1: Fermi energy shift (Ry) =     2.7105E-20     4.8979E-40
     Pert. #  2: Fermi energy shift (Ry) =     2.7105E-20    -9.7958E-40

      iter #   4 total cpu time :  3960.4 secs   av.it.:  17.8
      thresh= 1.494E-04 alpha_mix =  0.700 |ddv_scf|^2 =  2.078E-07

     Pert. #  1: Fermi energy shift (Ry) =     6.5052E-19    -2.4489E-40
     Pert. #  2: Fermi energy shift (Ry) =    -5.6017E-19     4.8979E-40

      iter #   5 total cpu time :  4029.2 secs   av.it.:  18.8
      thresh= 4.558E-05 alpha_mix =  0.700 |ddv_scf|^2 =  1.576E-07

     Pert. #  1: Fermi energy shift (Ry) =     0.0000E+00    -1.2245E-40
     Pert. #  2: Fermi energy shift (Ry) =     6.5052E-19     2.4489E-40

      iter #   6 total cpu time :  4095.6 secs   av.it.:  17.8
      thresh= 3.970E-05 alpha_mix =  0.700 |ddv_scf|^2 =  2.033E-07

     Pert. #  1: Fermi energy shift (Ry) =    -1.3010E-18    -2.4489E-40
     Pert. #  2: Fermi energy shift (Ry) =     7.2280E-20     4.8979E-40

      iter #   7 total cpu time :  4159.2 secs   av.it.:  16.0
      thresh= 4.509E-05 alpha_mix =  0.700 |ddv_scf|^2 =  2.124E-07

     Pert. #  1: Fermi energy shift (Ry) =     7.2280E-20     3.0612E-41
     Pert. #  2: Fermi energy shift (Ry) =    -1.4456E-19    -6.1224E-41

      iter #   8 total cpu time :  4229.4 secs   av.it.:  18.2
      thresh= 4.608E-05 alpha_mix =  0.700 |ddv_scf|^2 =  1.502E-07

     Pert. #  1: Fermi energy shift (Ry) =     3.6140E-20     0.0000E+00
     Pert. #  2: Fermi energy shift (Ry) =    -3.4333E-19     0.0000E+00

      iter #   9 total cpu time :  4301.8 secs   av.it.:  19.0
      thresh= 3.876E-05 alpha_mix =  0.700 |ddv_scf|^2 =  2.440E-08

     Pert. #  1: Fermi energy shift (Ry) =     1.4456E-19     0.0000E+00
     Pert. #  2: Fermi energy shift (Ry) =    -1.4456E-19     1.5306E-41

      iter #  10 total cpu time :  4375.8 secs   av.it.:  19.9
      thresh= 1.562E-05 alpha_mix =  0.700 |ddv_scf|^2 =  1.710E-08

     Pert. #  1: Fermi energy shift (Ry) =    -1.4456E-19    -6.1224E-41
     Pert. #  2: Fermi energy shift (Ry) =     1.4456E-19     1.2245E-40

      iter #  11 total cpu time :  4447.0 secs   av.it.:  19.5
      thresh= 1.308E-05 alpha_mix =  0.700 |ddv_scf|^2 =  3.733E-09

     Pert. #  1: Fermi energy shift (Ry) =     0.0000E+00     1.5306E-41
     Pert. #  2: Fermi energy shift (Ry) =     1.4456E-19     9.1835E-41

      iter #  12 total cpu time :  4519.3 secs   av.it.:  20.0
      thresh= 6.109E-06 alpha_mix =  0.700 |ddv_scf|^2 =  5.776E-10

     Pert. #  1: Fermi energy shift (Ry) =     0.0000E+00    -1.5306E-41
     Pert. #  2: Fermi energy shift (Ry) =     0.0000E+00     0.0000E+00

      iter #  13 total cpu time :  4594.7 secs   av.it.:  19.8
      thresh= 2.403E-06 alpha_mix =  0.700 |ddv_scf|^2 =  1.153E-10

     Pert. #  1: Fermi energy shift (Ry) =     0.0000E+00    -7.6530E-42
     Pert. #  2: Fermi energy shift (Ry) =     5.7824E-19    -3.8265E-42

      iter #  14 total cpu time :  4668.5 secs   av.it.:  19.2
      thresh= 1.074E-06 alpha_mix =  0.700 |ddv_scf|^2 =  6.892E-12

     Pert. #  1: Fermi energy shift (Ry) =     2.8912E-19     0.0000E+00
     Pert. #  2: Fermi energy shift (Ry) =     4.3368E-19    -1.5306E-41

      iter #  15 total cpu time :  4743.2 secs   av.it.:  20.4
      thresh= 2.625E-07 alpha_mix =  0.700 |ddv_scf|^2 =  3.243E-13

     Pert. #  1: Fermi energy shift (Ry) =     5.7824E-19     0.0000E+00
     Pert. #  2: Fermi energy shift (Ry) =     1.4456E-19    -1.5306E-41

      iter #  16 total cpu time :  4861.5 secs   av.it.:  20.1
      thresh= 5.695E-08 alpha_mix =  0.700 |ddv_scf|^2 =  1.103E-14

     Pert. #  1: Fermi energy shift (Ry) =     2.8912E-19     0.0000E+00
     Pert. #  2: Fermi energy shift (Ry) =    -2.8912E-19    -1.5306E-41

      iter #  17 total cpu time :  4937.6 secs   av.it.:  20.2
      thresh= 1.050E-08 alpha_mix =  0.700 |ddv_scf|^2 =  6.388E-15

     End of self-consistent calculation

     Convergence has been achieved 

     Number of q in the star =    1
     List of q in the star:
          1   0.000000000   0.000000000   0.000000000

     Diagonalizing the dynamical matrix

     q = (    0.000000000   0.000000000   0.000000000 ) 

 **************************************************************************
     freq (    1) =     -12.971410 [THz] =    -432.679679 [cm-1]
     freq (    2) =     -12.971410 [THz] =    -432.679679 [cm-1]
     freq (    3) =      -2.887950 [THz] =     -96.331648 [cm-1]
     freq (    4) =      -2.887950 [THz] =     -96.331648 [cm-1]
     freq (    5) =       1.218859 [THz] =      40.656766 [cm-1]
     freq (    6) =      14.424306 [THz] =     481.143043 [cm-1]
     freq (    7) =      17.925867 [THz] =     597.942569 [cm-1]
     freq (    8) =      17.925867 [THz] =     597.942570 [cm-1]
     freq (    9) =      35.845415 [THz] =    1195.674336 [cm-1]
 **************************************************************************

     Mode symmetry, C_3v (3m)   point group:

     freq (   1-   2) =       -432.7  [cm-1]   --> E    L_3        I+R
     freq (   3-   4) =        -96.3  [cm-1]   --> E    L_3        I+R
     freq (   5-   5) =         40.7  [cm-1]   --> A_1  L_1        I+R
     freq (   6-   6) =        481.1  [cm-1]   --> A_1  L_1        I+R
     freq (   7-   8) =        597.9  [cm-1]   --> E    L_3        I+R
     freq (   9-   9) =       1195.7  [cm-1]   --> A_1  L_1        I+R

     PHONON       :     21h32m CPU      1h22m WALL

     INITIALIZATION: 
     phq_setup    :     10.23s CPU      0.77s WALL (       1 calls)
     phq_init     :    454.74s CPU     30.24s WALL (       1 calls)

     phq_init     :    454.74s CPU     30.24s WALL (       1 calls)
     set_drhoc    :      0.19s CPU      0.01s WALL (       3 calls)
     init_vloc    :      0.15s CPU      0.07s WALL (       1 calls)
     init_us_1    :      0.33s CPU      0.33s WALL (       1 calls)
     init_us_2    :     17.19s CPU      1.30s WALL (     416 calls)
     newd         :      1.62s CPU      0.88s WALL (       1 calls)
     dvanqq       :    283.45s CPU     17.79s WALL (       1 calls)
     drho         :    166.55s CPU     11.83s WALL (       1 calls)
     drhous       :     68.96s CPU      4.37s WALL (       1 calls)
     nldyntot     :      0.29s CPU      0.02s WALL (       1 calls)

     DYNAMICAL MATRIX:
     dynmat0      :      4.17s CPU      0.54s WALL (       1 calls)
     dynmat_us    :      1.48s CPU      0.32s WALL (       1 calls)
     addusdynmat  :      0.00s CPU      0.00s WALL (       1 calls)
     d2ionq       :      0.60s CPU      0.07s WALL (       1 calls)
     dynmatcc     :      1.90s CPU      0.14s WALL (       1 calls)
     phqscf       :  77079.27s CPU   4904.16s WALL (       1 calls)
     dynmatrix    :      0.04s CPU      0.00s WALL (       1 calls)

     phqscf       :  77079.27s CPU   4904.16s WALL (       1 calls)
     solve_linter :  77065.66s CPU   4903.10s WALL (       6 calls)
     dfpt_kernel  :  76903.79s CPU   4892.91s WALL (       6 calls)
     sth_kernel   :  74667.72s CPU   4679.19s WALL (      83 calls)
     h_prec       :    137.26s CPU      8.81s WALL (     332 calls)
     apply_dpot_b :   1294.64s CPU     81.24s WALL (     472 calls)
     ortho        :    209.13s CPU     12.50s WALL (     508 calls)
     cgsolve      :  71204.23s CPU   4461.52s WALL (     508 calls)
     incdrhoscf   :   1775.51s CPU    111.58s WALL (     508 calls)
                                        0.00s GPU  (     508 calls)
     addusddens   :   1536.23s CPU     99.80s WALL (      89 calls)
     dv_of_drho   :    177.74s CPU     12.97s WALL (     127 calls)
     mix_pot      :     98.55s CPU      7.47s WALL (      83 calls)
     ef_shift     :     86.32s CPU      5.37s WALL (      83 calls)
     ef_shift_wfc :      0.01s CPU      0.03s WALL (       6 calls)
     localdos     :     34.90s CPU      5.21s WALL (       6 calls)
     drhodv       :     12.52s CPU      0.98s WALL (       6 calls)
     psymdvscf    :    146.67s CPU     10.42s WALL (      83 calls)
     newdq        :    188.15s CPU     75.13s WALL (      83 calls)
     adddvscf     :     23.47s CPU      1.47s WALL (     472 calls)
     com_dvloc    :     21.36s CPU      1.27s WALL (      99 calls)
                                        0.00s GPU  (      99 calls)
     addcore      :     11.94s CPU      0.74s WALL (      99 calls)
                                        0.00s GPU  (      99 calls)
     drhodvus     :      2.09s CPU      0.13s WALL (       6 calls)

     dvqpsi_us    :    127.96s CPU      8.01s WALL (      36 calls)
                                        0.00s GPU  (      36 calls)
     dvqpsi_us_on :      7.48s CPU      0.45s WALL (      36 calls)

     add_vuspsi   :   2702.79s CPU    154.12s WALL (   17581 calls)
     addusdbec    :     24.06s CPU      1.44s WALL (     544 calls)

     drhodvus     :      2.09s CPU      0.13s WALL (       6 calls)

      General routines
     calbec       :   1819.29s CPU    114.43s WALL (   36422 calls)
     fft          :    219.55s CPU     14.44s WALL (    2386 calls)
     ffts         :     77.20s CPU      4.70s WALL (     675 calls)
     fftw         :  42849.22s CPU   2712.43s WALL (  266541 calls)
     davcio       :     79.80s CPU      6.57s WALL (    3034 calls)
     write_rec    :      1.12s CPU      0.66s WALL (      89 calls)

      Additional routines
     ch_psi       :  61646.08s CPU   3841.21s WALL (   17581 calls)
     last         :   6782.40s CPU    425.65s WALL (   17581 calls)
     Hesh         :     22.07s CPU      2.89s WALL (   17581 calls)
     ch_psi_all_k :   6757.78s CPU    422.60s WALL (   17581 calls)
                                        0.00s GPU  (   17581 calls)
     ch_psi_calbe :    839.56s CPU     60.57s WALL (   17581 calls)
                                        0.00s GPU  (   17581 calls)
     h_psi_bgrp   :  50339.37s CPU   3135.24s WALL (   17581 calls)
     h_psi        :  50337.01s CPU   3135.17s WALL (   17581 calls)
     h_psi:pot    :  47758.15s CPU   2995.95s WALL (   17581 calls)
     h_psi:calbec :    942.37s CPU     50.70s WALL (   17581 calls)
     s_psi_bgrp   :   8881.96s CPU    539.41s WALL (   35670 calls)
     s_psi        :   4403.58s CPU    277.03s WALL (   35670 calls)


     PHONON       :     21h32m CPU      1h22m WALL


   This run was terminated on:  16:53:16  10May2026            

=------------------------------------------------------------------------------=
   JOB DONE.
=------------------------------------------------------------------------------=
