
     Program PWSCF v.7.5 starts on 10May2026 at 12:53:13 

     This program is part of the open-source Quantum ESPRESSO suite
     for quantum simulation of materials; please cite
         "P. Giannozzi et al., J. Phys.:Condens. Matter 21 395502 (2009);
         "P. Giannozzi et al., J. Phys.:Condens. Matter 29 465901 (2017);
         "P. Giannozzi et al., J. Chem. Phys. 152 154105 (2020);
          URL http://www.quantum-espresso.org", 
     in publications or presentations arising from this work. More details at
     http://www.quantum-espresso.org/quote

     Parallel version (MPI & OpenMP), running on       1 processor cores
     Number of MPI processes:                 1
     Threads/MPI process:                     1

     MPI processes distributed on     1 nodes
     7012 MiB available memory on the printing compute node when the environment starts

     Reading input from candidate_NbS2/01_relax.in

     Current dimensions of program PWSCF are:
     Max number of different atomic species (ntypx) = 10
     Max number of k-points (npk) =  40000
     Max angular momentum in pseudopotentials (lmaxx) =  4
     file Nb.pbe-spn-rrkjus_psl.1.0.0.UPF: wavefunction(s)  4S 4P renormalized
     Message from routine setup:
     using ibrav=0 with symmetry is DISCOURAGED, use correct ibrav instead

     Subspace diagonalization in iterative solution of the eigenvalue problem:
     a serial algorithm will be used


     G-vector sticks info
     --------------------
     sticks:   dense  smooth     PW     G-vecs:    dense   smooth      PW
     Sum         769     379    121                92797    32775    5495

     Using Slab Decomposition



     bravais-lattice index     =            0
     lattice parameter (alat)  =       6.3117  a.u.
     unit-cell volume          =    1173.5103 (a.u.)^3
     number of atoms/cell      =            3
     number of atomic types    =            2
     number of electrons       =        25.00
     number of Kohn-Sham states=           17
     kinetic-energy cutoff     =      35.0000  Ry
     charge density cutoff     =     280.0000  Ry
     scf convergence threshold =      1.0E-07
     mixing beta               =       0.3500
     number of iterations used =            8  plain     mixing
     energy convergence thresh.=      1.0E-04
     force convergence thresh. =      1.0E-03
     Exchange-correlation= PBE
                           (   1   4   3   4   0   0   0)
     nstep                     =           50


     celldm(1)=   6.311685  celldm(2)=   0.000000  celldm(3)=   0.000000
     celldm(4)=   0.000000  celldm(5)=   0.000000  celldm(6)=   0.000000

     crystal axes: (cart. coord. in units of alat)
               a(1) = (   1.000000   0.000000   0.000000 )  
               a(2) = (  -0.500000   0.866014   0.000000 )  
               a(3) = (   0.000000   0.000000   5.389222 )  

     reciprocal axes: (cart. coord. in units 2 pi/alat)
               b(1) = (  1.000000  0.577358 -0.000000 )  
               b(2) = (  0.000000  1.154716  0.000000 )  
               b(3) = (  0.000000 -0.000000  0.185556 )  


     PseudoPot. # 1 for Nb read from file:
     ./pseudos/Nb.pbe-spn-rrkjus_psl.1.0.0.UPF
     MD5 check sum: 6ee677a9f002bd3e3657f443f129faad
     Pseudo is Ultrasoft + core correction, Zval = 13.0
     Generated using &quot;atomic&quot; code by A. Dal Corso  v.6.2.2
     Using radial grid of 1227 points,  6 beta functions with: 
                l(1) =   0
                l(2) =   0
                l(3) =   1
                l(4) =   1
                l(5) =   2
                l(6) =   2
     Q(r) pseudized with 0 coefficients 


     PseudoPot. # 2 for S  read from file:
     ./pseudos/S.pbe-n-rrkjus_psl.1.0.0.UPF
     MD5 check sum: 9d0fe39aa2a799ea84730884c9b010f4
     Pseudo is Ultrasoft + core correction, Zval =  6.0
     Generated using &quot;atomic&quot; code by A. Dal Corso  v.6.3
     Using radial grid of 1151 points,  6 beta functions with: 
                l(1) =   0
                l(2) =   0
                l(3) =   1
                l(4) =   1
                l(5) =   2
                l(6) =   2
     Q(r) pseudized with 0 coefficients 


     atomic species   valence    mass     pseudopotential
     Nb               13.00    92.90600     Nb( 1.00)
     S                 6.00    32.06000     S ( 1.00)

      4 Sym. Ops. (no inversion) found



   Cartesian axes

     site n.     atom                  positions (alat units)
         1        Nb     tau(   1) = (   0.0000000   0.0000000   0.0000000  )
         2        S      tau(   2) = (   0.5000000   0.2886713   0.4565868  )
         3        S      tau(   3) = (   0.5000000   0.2886713  -0.4565868  )

     number of k points=     7  Methfessel-Paxton smearing, width (Ry)=  0.0200
                       cart. coord. in units 2pi/alat
        k(    1) = (   0.0000000   0.0000000   0.0000000), wk =   0.1250000
        k(    2) = (   0.0000000   0.2886790   0.0000000), wk =   0.2500000
        k(    3) = (   0.0000000  -0.5773579   0.0000000), wk =   0.1250000
        k(    4) = (   0.2500000   0.1443395   0.0000000), wk =   0.5000000
        k(    5) = (   0.2500000   0.4330184   0.0000000), wk =   0.5000000
        k(    6) = (  -0.5000000  -0.2886790   0.0000000), wk =   0.2500000
        k(    7) = (  -0.5000000   0.0000000   0.0000000), wk =   0.2500000

     Dense  grid:    92797 G-vectors     FFT dimensions: (  36,  36, 192)

     Smooth grid:    32775 G-vectors     FFT dimensions: (  24,  24, 135)

     Estimated max dynamical RAM per process >     357.24 MB
 ----2D----2D----2D----2D----2D----2D----2D----2D----2D----2D----2D----2D
  The code is running with the 2D cutoff
  Please refer to:
  Sohier, T., Calandra, M., & Mauri, F. (2017), 
  Density functional perturbation theory for gated two-dimensional heterostructures:
  Theoretical developments and application to flexural phonons in graphene.
  Physical Review B, 96(7), 75448. https://doi.org/10.1103/PhysRevB.96.075448
 ----2D----2D----2D----2D----2D----2D----2D----2D----2D----2D----2D----2D

     Initial potential from superposition of free atoms

     starting charge      24.9986, renormalised to      25.0000

     negative rho (up, down):  1.489E-04 0.000E+00
     Starting wfcs are   21 randomized atomic wfcs

     total cpu time spent up to now is        2.5 secs

     per-process dynamical memory:    73.6 Mb

     Self-consistent Calculation

     iteration #  1     ecut=    35.00 Ry     beta= 0.35
     Davidson diagonalization with overlap
     ethr =  1.00E-02,  avg # of iterations =  3.4

     Threshold (ethr) on eigenvalues was too large:
     Diagonalizing with lowered threshold

     Davidson diagonalization with overlap
     ethr =  3.51E-04,  avg # of iterations =  3.9

     negative rho (up, down):  1.265E-04 0.000E+00

     total cpu time spent up to now is        5.7 secs

     total energy              =    -160.10775150 Ry
     estimated scf accuracy    <       0.12393351 Ry

     iteration #  2     ecut=    35.00 Ry     beta= 0.35
     Davidson diagonalization with overlap
     ethr =  4.96E-04,  avg # of iterations =  2.0

     negative rho (up, down):  1.149E-04 0.000E+00

     total cpu time spent up to now is        7.5 secs

     total energy              =    -160.11521885 Ry
     estimated scf accuracy    <       0.01670880 Ry

     iteration #  3     ecut=    35.00 Ry     beta= 0.35
     Davidson diagonalization with overlap
     ethr =  6.68E-05,  avg # of iterations =  2.3

     negative rho (up, down):  1.088E-04 0.000E+00

     total cpu time spent up to now is        9.4 secs

     total energy              =    -160.11855798 Ry
     estimated scf accuracy    <       0.00605951 Ry

     iteration #  4     ecut=    35.00 Ry     beta= 0.35
     Davidson diagonalization with overlap
     ethr =  2.42E-05,  avg # of iterations =  1.9

     negative rho (up, down):  1.149E-04 0.000E+00

     total cpu time spent up to now is       11.2 secs

     total energy              =    -160.11902086 Ry
     estimated scf accuracy    <       0.00169846 Ry

     iteration #  5     ecut=    35.00 Ry     beta= 0.35
     Davidson diagonalization with overlap
     ethr =  6.79E-06,  avg # of iterations =  2.1

     negative rho (up, down):  1.128E-04 0.000E+00

     total cpu time spent up to now is       13.0 secs

     total energy              =    -160.11911324 Ry
     estimated scf accuracy    <       0.00059540 Ry

     iteration #  6     ecut=    35.00 Ry     beta= 0.35
     Davidson diagonalization with overlap
     ethr =  2.38E-06,  avg # of iterations =  2.3

     negative rho (up, down):  1.113E-04 0.000E+00

     total cpu time spent up to now is       14.9 secs

     total energy              =    -160.11922397 Ry
     estimated scf accuracy    <       0.00001248 Ry

     iteration #  7     ecut=    35.00 Ry     beta= 0.35
     Davidson diagonalization with overlap
     ethr =  4.99E-08,  avg # of iterations =  4.0

     negative rho (up, down):  1.103E-04 0.000E+00

     total cpu time spent up to now is       16.8 secs

     total energy              =    -160.11922383 Ry
     estimated scf accuracy    <       0.00001001 Ry

     iteration #  8     ecut=    35.00 Ry     beta= 0.35
     Davidson diagonalization with overlap
     ethr =  4.00E-08,  avg # of iterations =  2.0

     negative rho (up, down):  1.093E-04 0.000E+00

     total cpu time spent up to now is       18.7 secs

     total energy              =    -160.11922690 Ry
     estimated scf accuracy    <       0.00000117 Ry

     iteration #  9     ecut=    35.00 Ry     beta= 0.35
     Davidson diagonalization with overlap
     ethr =  4.67E-09,  avg # of iterations =  2.0

     negative rho (up, down):  1.088E-04 0.000E+00

     total cpu time spent up to now is       20.4 secs

     total energy              =    -160.11922700 Ry
     estimated scf accuracy    <       0.00000016 Ry

     iteration # 10     ecut=    35.00 Ry     beta= 0.35
     Davidson diagonalization with overlap
     ethr =  6.51E-10,  avg # of iterations =  2.1

     negative rho (up, down):  1.078E-04 0.000E+00

     total cpu time spent up to now is       22.2 secs

     End of self-consistent calculation

          k = 0.0000 0.0000 0.0000 (  4067 PWs)   bands (ev):

   -60.9728 -37.1268 -36.9266 -36.9266 -19.6562 -18.2469 -11.1652  -8.5726
    -8.5725  -7.4701  -7.4701  -7.2899  -5.0130  -3.0658  -3.0657  -2.7568
    -2.7567

          k = 0.0000 0.2887 0.0000 (  4106 PWs)   bands (ev):

   -60.9551 -37.1201 -37.0857 -36.9697 -18.9668 -18.0690 -10.6416  -9.6750
    -9.1612  -8.3616  -7.8847  -7.0153  -6.0047  -3.1922  -3.0901  -2.7108
    -1.8915

          k = 0.0000-0.5774 0.0000 (  4108 PWs)   bands (ev):

   -60.9371 -37.3067 -37.0437 -37.0123 -18.1630 -17.8659 -11.2587 -10.1938
    -9.7111  -8.9846  -7.3724  -7.2225  -6.1463  -3.1176  -2.6753  -1.8008
    -1.1632

          k = 0.2500 0.1443 0.0000 (  4106 PWs)   bands (ev):

   -60.9551 -37.1201 -37.0857 -36.9697 -18.9668 -18.0691 -10.6417  -9.6750
    -9.1613  -8.3616  -7.8846  -7.0153  -6.0047  -3.1921  -3.0901  -2.7108
    -1.8914

          k = 0.2500 0.4330 0.0000 (  4102 PWs)   bands (ev):

   -60.9370 -37.2374 -37.0838 -37.0440 -18.1740 -17.8459 -10.6738 -10.4855
    -9.4514  -8.7738  -8.6461  -7.2603  -6.0729  -3.2972  -2.5692  -2.1949
    -0.9696

          k =-0.5000-0.2887 0.0000 (  4108 PWs)   bands (ev):

   -60.9371 -37.3067 -37.0437 -37.0123 -18.1630 -17.8659 -11.2588 -10.1938
    -9.7111  -8.9845  -7.3724  -7.2224  -6.1463  -3.1176  -2.6753  -1.8008
    -1.1631

          k =-0.5000 0.0000 0.0000 (  4102 PWs)   bands (ev):

   -60.9370 -37.2374 -37.0838 -37.0440 -18.1740 -17.8459 -10.6737 -10.4855
    -9.4514  -8.7737  -8.6461  -7.2603  -6.0728  -3.2972  -2.5692  -2.1949
    -0.9697

     the Fermi energy is    -6.0484 ev

!    total energy              =    -160.11922703 Ry
     estimated scf accuracy    <       0.00000002 Ry
     smearing contrib. (-TS)   =      -0.00470879 Ry
     internal energy E=F+TS    =    -160.11451824 Ry

     The total energy is F=E-TS. E is the sum of the following terms:
     one-electron contribution =   -1380.12354018 Ry
     hartree contribution      =     685.92243332 Ry
     xc contribution           =     -28.78776290 Ry
     ewald contribution        =     562.87435154 Ry

     convergence has been achieved in  10 iterations

     negative rho (up, down):  1.078E-04 0.000E+00

     Forces acting on atoms (cartesian axes, Ry/au):

     atom    1 type  1   force =     0.00000000    0.00000498    0.00000000
     atom    2 type  2   force =     0.00000000   -0.00000249    0.02523841
     atom    3 type  2   force =     0.00000000   -0.00000249   -0.02523841

     Total force =     0.035692     Total SCF correction =     0.000331


     Computing stress (Cartesian axis) and pressure


     negative rho (up, down):  1.078E-04 0.000E+00
          total   stress  (Ry/bohr**3)                   (kbar)     P=        9.47
   0.00005190   0.00000000   0.00000000            7.63        0.00        0.00
   0.00000000   0.00005193   0.00000000            0.00        7.64        0.00
   0.00000000   0.00000000   0.00008919            0.00        0.00       13.12


     BFGS Geometry Optimization
     Energy error            =      1.3E-03 Ry
     Gradient error          =      2.5E-02 Ry/Bohr

     number of scf cycles    =   1
     number of bfgs steps    =   0

     energy             new  =    -160.1192270278 Ry

     new trust radius        =       0.0252384067 bohr
     new conv_thr            =       0.0000001000 Ry


ATOMIC_POSITIONS (angstrom)
Nb               0.0000000000        0.0000026353        0.0000000000
S                1.6700000000        0.9641608424        1.5383555896
S                1.6700000000        0.9641608424       -1.5383555896



     Writing config-only to output data dir ./tmp/candidate_NbS2.save/ :
     XML data file
     NEW-OLD atomic charge density approx. for the potential

     negative rho (up, down):  1.067E-04 0.000E+00

     total cpu time spent up to now is       28.1 secs

     per-process dynamical memory:   104.8 Mb

     Self-consistent Calculation

     iteration #  1     ecut=    35.00 Ry     beta= 0.35
     Davidson diagonalization with overlap
     ethr =  1.00E-06,  avg # of iterations =  6.0

     negative rho (up, down):  1.068E-04 0.000E+00

     total cpu time spent up to now is       30.4 secs

     total energy              =    -160.12024654 Ry
     estimated scf accuracy    <       0.00019103 Ry

     iteration #  2     ecut=    35.00 Ry     beta= 0.35
     Davidson diagonalization with overlap
     ethr =  7.64E-07,  avg # of iterations =  2.0

     negative rho (up, down):  1.069E-04 0.000E+00

     total cpu time spent up to now is       32.2 secs

     total energy              =    -160.12028279 Ry
     estimated scf accuracy    <       0.00019849 Ry

     iteration #  3     ecut=    35.00 Ry     beta= 0.35
     Davidson diagonalization with overlap
     ethr =  7.64E-07,  avg # of iterations =  1.0

     negative rho (up, down):  1.071E-04 0.000E+00

     total cpu time spent up to now is       33.9 secs

     total energy              =    -160.12030746 Ry
     estimated scf accuracy    <       0.00000448 Ry

     iteration #  4     ecut=    35.00 Ry     beta= 0.35
     Davidson diagonalization with overlap
     ethr =  1.79E-08,  avg # of iterations =  3.9

     negative rho (up, down):  1.072E-04 0.000E+00

     total cpu time spent up to now is       35.7 secs

     total energy              =    -160.12030857 Ry
     estimated scf accuracy    <       0.00000259 Ry

     iteration #  5     ecut=    35.00 Ry     beta= 0.35
     Davidson diagonalization with overlap
     ethr =  1.04E-08,  avg # of iterations =  1.4

     negative rho (up, down):  1.073E-04 0.000E+00

     total cpu time spent up to now is       37.3 secs

     total energy              =    -160.12030889 Ry
     estimated scf accuracy    <       0.00000010 Ry

     iteration #  6     ecut=    35.00 Ry     beta= 0.35
     Davidson diagonalization with overlap
     ethr =  4.03E-10,  avg # of iterations =  3.1

     negative rho (up, down):  1.072E-04 0.000E+00

     total cpu time spent up to now is       39.1 secs

     End of self-consistent calculation

          k = 0.0000 0.0000 0.0000 (  4067 PWs)   bands (ev):

   -60.9917 -37.1330 -36.9422 -36.9421 -19.6136 -18.2508 -11.1342  -8.5056
    -8.5054  -7.4217  -7.4216  -7.3252  -5.0615  -3.0735  -3.0734  -2.8045
    -2.8044

          k = 0.0000 0.2887 0.0000 (  4106 PWs)   bands (ev):

   -60.9742 -37.1335 -37.0925 -36.9849 -18.9272 -18.0633 -10.5944  -9.6419
    -9.1410  -8.3132  -7.8272  -7.0450  -6.0213  -3.2220  -3.1381  -2.7287
    -1.9240

          k = 0.0000-0.5774 0.0000 (  4108 PWs)   bands (ev):

   -60.9563 -37.3180 -37.0511 -37.0272 -18.1234 -17.8486 -11.2290 -10.1856
    -9.6829  -8.9358  -7.4064  -7.1850  -6.1527  -3.1197  -2.6773  -1.8333
    -1.2207

          k = 0.2500 0.1443 0.0000 (  4106 PWs)   bands (ev):

   -60.9742 -37.1335 -37.0925 -36.9849 -18.9272 -18.0634 -10.5944  -9.6420
    -9.1410  -8.3131  -7.8271  -7.0450  -6.0213  -3.2220  -3.1381  -2.7287
    -1.9240

          k = 0.2500 0.4330 0.0000 (  4102 PWs)   bands (ev):

   -60.9562 -37.2493 -37.0980 -37.0514 -18.1352 -17.8294 -10.6372 -10.4464
    -9.4278  -8.7690  -8.6221  -7.2886  -6.0597  -3.3010  -2.5890  -2.2319
    -1.0224

          k =-0.5000-0.2887 0.0000 (  4108 PWs)   bands (ev):

   -60.9563 -37.3180 -37.0511 -37.0272 -18.1234 -17.8486 -11.2290 -10.1856
    -9.6829  -8.9357  -7.4064  -7.1849  -6.1528  -3.1197  -2.6773  -1.8333
    -1.2207

          k =-0.5000 0.0000 0.0000 (  4102 PWs)   bands (ev):

   -60.9562 -37.2493 -37.0980 -37.0514 -18.1352 -17.8294 -10.6372 -10.4464
    -9.4278  -8.7689  -8.6221  -7.2886  -6.0596  -3.3010  -2.5890  -2.2319
    -1.0224

     the Fermi energy is    -6.0508 ev

!    total energy              =    -160.12030889 Ry
     estimated scf accuracy    <       0.00000002 Ry
     smearing contrib. (-TS)   =      -0.00481224 Ry
     internal energy E=F+TS    =    -160.11549666 Ry

     The total energy is F=E-TS. E is the sum of the following terms:
     one-electron contribution =   -1376.22529122 Ry
     hartree contribution      =     683.97185518 Ry
     xc contribution           =     -28.76906088 Ry
     ewald contribution        =     560.90700027 Ry

     convergence has been achieved in   6 iterations

     negative rho (up, down):  1.072E-04 0.000E+00

     Forces acting on atoms (cartesian axes, Ry/au):

     atom    1 type  1   force =     0.00000000    0.00000291    0.00000000
     atom    2 type  2   force =     0.00000000   -0.00000146    0.01753327
     atom    3 type  2   force =     0.00000000   -0.00000146   -0.01753327

     Total force =     0.024796     Total SCF correction =     0.000362


     Computing stress (Cartesian axis) and pressure


     negative rho (up, down):  1.072E-04 0.000E+00
          total   stress  (Ry/bohr**3)                   (kbar)     P=        5.80
   0.00003330   0.00000000   0.00000000            4.90        0.00        0.00
   0.00000000   0.00003333   0.00000000            0.00        4.90        0.00
   0.00000000   0.00000000   0.00005174            0.00        0.00        7.61

     Energy error            =      1.1E-03 Ry
     Gradient error          =      1.8E-02 Ry/Bohr

     number of scf cycles    =   2
     number of bfgs steps    =   1

     energy             old  =    -160.1192270278 Ry
     energy             new  =    -160.1203088950 Ry

     CASE: energy            _new < energy            _old

     new trust radius        =       0.0277622473 bohr
     new conv_thr            =       0.0000000108 Ry


ATOMIC_POSITIONS (angstrom)
Nb               0.0000000000        0.0000050759        0.0000000000
S                1.6700000000        0.9641596220        1.5530467381
S                1.6700000000        0.9641596220       -1.5530467381



     Writing config-only to output data dir ./tmp/candidate_NbS2.save/ :
     XML data file
     NEW-OLD atomic charge density approx. for the potential

     negative rho (up, down):  1.060E-04 0.000E+00

     total cpu time spent up to now is       45.8 secs

     per-process dynamical memory:   104.8 Mb

     Self-consistent Calculation

     iteration #  1     ecut=    35.00 Ry     beta= 0.35
     Davidson diagonalization with overlap
     ethr =  1.00E-06,  avg # of iterations =  6.0

     negative rho (up, down):  1.062E-04 0.000E+00

     total cpu time spent up to now is       48.0 secs

     total energy              =    -160.12096876 Ry
     estimated scf accuracy    <       0.00023971 Ry

     iteration #  2     ecut=    35.00 Ry     beta= 0.35
     Davidson diagonalization with overlap
     ethr =  9.59E-07,  avg # of iterations =  2.0

     negative rho (up, down):  1.063E-04 0.000E+00

     total cpu time spent up to now is       49.9 secs

     total energy              =    -160.12101355 Ry
     estimated scf accuracy    <       0.00026962 Ry

     iteration #  3     ecut=    35.00 Ry     beta= 0.35
     Davidson diagonalization with overlap
     ethr =  9.59E-07,  avg # of iterations =  1.0

     negative rho (up, down):  1.065E-04 0.000E+00

     total cpu time spent up to now is       51.7 secs

     total energy              =    -160.12104657 Ry
     estimated scf accuracy    <       0.00000544 Ry

     iteration #  4     ecut=    35.00 Ry     beta= 0.35
     Davidson diagonalization with overlap
     ethr =  2.18E-08,  avg # of iterations =  3.9

     negative rho (up, down):  1.066E-04 0.000E+00

     total cpu time spent up to now is       53.6 secs

     total energy              =    -160.12104808 Ry
     estimated scf accuracy    <       0.00000328 Ry

     iteration #  5     ecut=    35.00 Ry     beta= 0.35
     Davidson diagonalization with overlap
     ethr =  1.31E-08,  avg # of iterations =  1.0

     negative rho (up, down):  1.067E-04 0.000E+00

     total cpu time spent up to now is       55.3 secs

     total energy              =    -160.12104843 Ry
     estimated scf accuracy    <       0.00000014 Ry

     iteration #  6     ecut=    35.00 Ry     beta= 0.35
     Davidson diagonalization with overlap
     ethr =  5.64E-10,  avg # of iterations =  3.4

     negative rho (up, down):  1.067E-04 0.000E+00

     total cpu time spent up to now is       57.2 secs

     total energy              =    -160.12104846 Ry
     estimated scf accuracy    <       0.00000004 Ry

     iteration #  7     ecut=    35.00 Ry     beta= 0.35
     Davidson diagonalization with overlap
     ethr =  1.41E-10,  avg # of iterations =  1.1

     negative rho (up, down):  1.066E-04 0.000E+00

     total cpu time spent up to now is       58.9 secs

     End of self-consistent calculation

          k = 0.0000 0.0000 0.0000 (  4067 PWs)   bands (ev):

   -61.0110 -37.1383 -36.9581 -36.9581 -19.5676 -18.2540 -11.1009  -8.4326
    -8.4324  -7.3680  -7.3679  -7.3625  -5.1134  -3.0815  -3.0814  -2.8558
    -2.8557

          k = 0.0000 0.2887 0.0000 (  4106 PWs)   bands (ev):

   -60.9936 -37.1471 -37.0985 -37.0005 -18.8843 -18.0563 -10.5433  -9.6057
    -9.1180  -8.2594  -7.7644  -7.0761  -6.0387  -3.2541  -3.1902  -2.7479
    -1.9594

          k = 0.0000-0.5774 0.0000 (  4108 PWs)   bands (ev):

   -60.9759 -37.3295 -37.0577 -37.0424 -18.0807 -17.8288 -11.1960 -10.1757
    -9.6519  -8.8814  -7.4420  -7.1442  -6.1597  -3.1215  -2.6806  -1.8685
    -1.2829

          k = 0.2500 0.1443 0.0000 (  4106 PWs)   bands (ev):

   -60.9936 -37.1471 -37.0985 -37.0005 -18.8844 -18.0563 -10.5433  -9.6057
    -9.1180  -8.2593  -7.7643  -7.0761  -6.0388  -3.2540  -3.1902  -2.7478
    -1.9594

          k = 0.2500 0.4330 0.0000 (  4102 PWs)   bands (ev):

   -60.9758 -37.2614 -37.1124 -37.0581 -18.0933 -17.8105 -10.5969 -10.4029
    -9.4020  -8.7627  -8.5955  -7.3179  -6.0454  -3.3077  -2.6084  -2.2725
    -1.0789

          k =-0.5000-0.2887 0.0000 (  4108 PWs)   bands (ev):

   -60.9759 -37.3295 -37.0577 -37.0424 -18.0807 -17.8288 -11.1960 -10.1756
    -9.6519  -8.8812  -7.4420  -7.1440  -6.1597  -3.1215  -2.6806  -1.8685
    -1.2829

          k =-0.5000 0.0000 0.0000 (  4102 PWs)   bands (ev):

   -60.9758 -37.2614 -37.1124 -37.0581 -18.0933 -17.8106 -10.5969 -10.4029
    -9.4020  -8.7627  -8.5955  -7.3179  -6.0454  -3.3077  -2.6085  -2.2725
    -1.0789

     the Fermi energy is    -6.0532 ev

!    total energy              =    -160.12104845 Ry
     estimated scf accuracy    <          3.7E-09 Ry
     smearing contrib. (-TS)   =      -0.00483771 Ry
     internal energy E=F+TS    =    -160.11621074 Ry

     The total energy is F=E-TS. E is the sum of the following terms:
     one-electron contribution =   -1371.92636156 Ry
     hartree contribution      =     681.81951871 Ry
     xc contribution           =     -28.74862210 Ry
     ewald contribution        =     558.73925421 Ry

     convergence has been achieved in   7 iterations

     negative rho (up, down):  1.066E-04 0.000E+00

     Forces acting on atoms (cartesian axes, Ry/au):

     atom    1 type  1   force =     0.00000000    0.00000213    0.00000000
     atom    2 type  2   force =     0.00000000   -0.00000107    0.00910321
     atom    3 type  2   force =     0.00000000   -0.00000107   -0.00910321

     Total force =     0.012874     Total SCF correction =     0.000169


     Computing stress (Cartesian axis) and pressure


     negative rho (up, down):  1.066E-04 0.000E+00
          total   stress  (Ry/bohr**3)                   (kbar)     P=        1.84
   0.00001356   0.00000000   0.00000000            1.99        0.00        0.00
   0.00000000   0.00001358   0.00000000            0.00        2.00        0.00
   0.00000000   0.00000000   0.00001047            0.00        0.00        1.54

     Energy error            =      7.4E-04 Ry
     Gradient error          =      9.1E-03 Ry/Bohr

     number of scf cycles    =   3
     number of bfgs steps    =   2

     energy             old  =    -160.1203088950 Ry
     energy             new  =    -160.1210484472 Ry

     CASE: energy            _new < energy            _old

     new trust radius        =       0.0299791320 bohr
     new conv_thr            =       0.0000000074 Ry


ATOMIC_POSITIONS (angstrom)
Nb               0.0000000000        0.0000083958        0.0000000000
S                1.6700000000        0.9641579621        1.5689110115
S                1.6700000000        0.9641579621       -1.5689110115



     Writing config-only to output data dir ./tmp/candidate_NbS2.save/ :
     XML data file
     NEW-OLD atomic charge density approx. for the potential

     negative rho (up, down):  1.051E-04 0.000E+00

     total cpu time spent up to now is       64.5 secs

     per-process dynamical memory:   104.8 Mb

     Self-consistent Calculation

     iteration #  1     ecut=    35.00 Ry     beta= 0.35
     Davidson diagonalization with overlap
     ethr =  1.00E-06,  avg # of iterations =  6.0

     negative rho (up, down):  1.054E-04 0.000E+00

     total cpu time spent up to now is       66.8 secs

     total energy              =    -160.12124073 Ry
     estimated scf accuracy    <       0.00025903 Ry

     iteration #  2     ecut=    35.00 Ry     beta= 0.35
     Davidson diagonalization with overlap
     ethr =  1.04E-06,  avg # of iterations =  2.0

     negative rho (up, down):  1.054E-04 0.000E+00

     total cpu time spent up to now is       68.7 secs

     total energy              =    -160.12128734 Ry
     estimated scf accuracy    <       0.00031014 Ry

     iteration #  3     ecut=    35.00 Ry     beta= 0.35
     Davidson diagonalization with overlap
     ethr =  1.04E-06,  avg # of iterations =  1.0

     negative rho (up, down):  1.057E-04 0.000E+00

     total cpu time spent up to now is       70.3 secs

     total energy              =    -160.12132503 Ry
     estimated scf accuracy    <       0.00000611 Ry

     iteration #  4     ecut=    35.00 Ry     beta= 0.35
     Davidson diagonalization with overlap
     ethr =  2.45E-08,  avg # of iterations =  3.9

     negative rho (up, down):  1.058E-04 0.000E+00

     total cpu time spent up to now is       72.2 secs

     total energy              =    -160.12132657 Ry
     estimated scf accuracy    <       0.00000293 Ry

     iteration #  5     ecut=    35.00 Ry     beta= 0.35
     Davidson diagonalization with overlap
     ethr =  1.17E-08,  avg # of iterations =  1.3

     negative rho (up, down):  1.058E-04 0.000E+00

     total cpu time spent up to now is       73.8 secs

     total energy              =    -160.12132692 Ry
     estimated scf accuracy    <       0.00000013 Ry

     iteration #  6     ecut=    35.00 Ry     beta= 0.35
     Davidson diagonalization with overlap
     ethr =  5.19E-10,  avg # of iterations =  3.6

     negative rho (up, down):  1.058E-04 0.000E+00

     total cpu time spent up to now is       75.5 secs

     total energy              =    -160.12132694 Ry
     estimated scf accuracy    <       0.00000002 Ry

     iteration #  7     ecut=    35.00 Ry     beta= 0.35
     Davidson diagonalization with overlap
     ethr =  9.75E-11,  avg # of iterations =  1.1

     negative rho (up, down):  1.058E-04 0.000E+00

     total cpu time spent up to now is       77.3 secs

     End of self-consistent calculation

          k = 0.0000 0.0000 0.0000 (  4067 PWs)   bands (ev):

   -61.0316 -37.1441 -36.9753 -36.9753 -19.5191 -18.2566 -11.0661  -8.3551
    -8.3550  -7.4011  -7.3100  -7.3098  -5.1686  -3.0904  -3.0903  -2.9102
    -2.9100

          k = 0.0000 0.2887 0.0000 (  4106 PWs)   bands (ev):

   -61.0143 -37.1619 -37.1050 -37.0172 -18.8392 -18.0479 -10.4895  -9.5669
    -9.0928  -8.2011  -7.6976  -7.1079  -6.0572  -3.2883  -3.2462  -2.7688
    -1.9977

          k = 0.0000-0.5774 0.0000 (  4108 PWs)   bands (ev):

   -60.9968 -37.3420 -37.0649 -37.0587 -18.0357 -17.8069 -11.1603 -10.1642
    -9.6188  -8.8224  -7.4787  -7.1006  -6.1676  -3.1239  -2.6863  -1.9067
    -1.3494

          k = 0.2500 0.1443 0.0000 (  4106 PWs)   bands (ev):

   -61.0143 -37.1619 -37.1050 -37.0172 -18.8392 -18.0479 -10.4895  -9.5669
    -9.0929  -8.2010  -7.6975  -7.1079  -6.0573  -3.2882  -3.2463  -2.7687
    -1.9977

          k = 0.2500 0.4330 0.0000 (  4102 PWs)   bands (ev):

   -60.9966 -37.2746 -37.1281 -37.0652 -18.0492 -17.7896 -10.5535 -10.3559
    -9.3749  -8.7552  -8.5667  -7.3477  -6.0310  -3.3188  -2.6276  -2.3170
    -1.1389

          k =-0.5000-0.2887 0.0000 (  4108 PWs)   bands (ev):

   -60.9968 -37.3420 -37.0649 -37.0587 -18.0358 -17.8069 -11.1604 -10.1641
    -9.6188  -8.8223  -7.4787  -7.1005  -6.1677  -3.1240  -2.6863  -1.9066
    -1.3494

          k =-0.5000 0.0000 0.0000 (  4102 PWs)   bands (ev):

   -60.9966 -37.2746 -37.1281 -37.0652 -18.0492 -17.7896 -10.5535 -10.3558
    -9.3749  -8.7552  -8.5667  -7.3477  -6.0309  -3.3188  -2.6277  -2.3170
    -1.1389

     the Fermi energy is    -6.0562 ev

!    total energy              =    -160.12132694 Ry
     estimated scf accuracy    <          1.7E-09 Ry
     smearing contrib. (-TS)   =      -0.00477090 Ry
     internal energy E=F+TS    =    -160.11655605 Ry

     The total energy is F=E-TS. E is the sum of the following terms:
     one-electron contribution =   -1367.27602167 Ry
     hartree contribution      =     679.49215186 Ry
     xc contribution           =     -28.72688782 Ry
     ewald contribution        =     556.39420158 Ry

     convergence has been achieved in   7 iterations

     negative rho (up, down):  1.058E-04 0.000E+00

     Forces acting on atoms (cartesian axes, Ry/au):

     atom    1 type  1   force =     0.00000000    0.00000038    0.00000000
     atom    2 type  2   force =     0.00000000   -0.00000019    0.00018463
     atom    3 type  2   force =     0.00000000   -0.00000019   -0.00018463

     Total force =     0.000261     Total SCF correction =     0.000098
     SCF correction compared to forces is large: reduce conv_thr to get better values


     Computing stress (Cartesian axis) and pressure


     negative rho (up, down):  1.058E-04 0.000E+00
          total   stress  (Ry/bohr**3)                   (kbar)     P=       -2.35
  -0.00000693   0.00000000   0.00000000           -1.02        0.00        0.00
   0.00000000  -0.00000691  -0.00000000            0.00       -1.02       -0.00
   0.00000000  -0.00000000  -0.00003414            0.00       -0.00       -5.02

     Energy error            =      2.8E-04 Ry
     Gradient error          =      1.8E-04 Ry/Bohr

     number of scf cycles    =   4
     number of bfgs steps    =   3

     energy             old  =    -160.1210484472 Ry
     energy             new  =    -160.1213269447 Ry

     CASE: energy            _new < energy            _old

     new trust radius        =       0.0006206044 bohr
     new conv_thr            =       0.0000000010 Ry


ATOMIC_POSITIONS (angstrom)
Nb               0.0000000000        0.0000086449        0.0000000000
S                1.6700000000        0.9641578375        1.5692394212
S                1.6700000000        0.9641578375       -1.5692394212



     Writing config-only to output data dir ./tmp/candidate_NbS2.save/ :
     XML data file
     NEW-OLD atomic charge density approx. for the potential

     negative rho (up, down):  1.057E-04 0.000E+00

     total cpu time spent up to now is       83.9 secs

     per-process dynamical memory:   104.8 Mb

     Self-consistent Calculation

     iteration #  1     ecut=    35.00 Ry     beta= 0.35
     Davidson diagonalization with overlap
     ethr =  1.00E-06,  avg # of iterations =  2.0

     Threshold (ethr) on eigenvalues was too large:
     Diagonalizing with lowered threshold

     Davidson diagonalization with overlap
     ethr =  4.48E-10,  avg # of iterations =  4.0

     negative rho (up, down):  1.057E-04 0.000E+00

     total cpu time spent up to now is       86.8 secs

     total energy              =    -160.12132701 Ry
     estimated scf accuracy    <       0.00000020 Ry

     iteration #  2     ecut=    35.00 Ry     beta= 0.35
     Davidson diagonalization with overlap
     ethr =  7.81E-10,  avg # of iterations =  2.0

     negative rho (up, down):  1.057E-04 0.000E+00

     total cpu time spent up to now is       88.6 secs

     total energy              =    -160.12132705 Ry
     estimated scf accuracy    <       0.00000025 Ry

     iteration #  3     ecut=    35.00 Ry     beta= 0.35
     Davidson diagonalization with overlap
     ethr =  7.81E-10,  avg # of iterations =  1.0

     negative rho (up, down):  1.058E-04 0.000E+00

     total cpu time spent up to now is       90.3 secs

     total energy              =    -160.12132707 Ry
     estimated scf accuracy    <          3.1E-09 Ry

     iteration #  4     ecut=    35.00 Ry     beta= 0.35
     Davidson diagonalization with overlap
     ethr =  1.23E-11,  avg # of iterations =  4.0

     negative rho (up, down):  1.058E-04 0.000E+00

     total cpu time spent up to now is       91.3 secs

     total energy              =    -160.12132708 Ry
     estimated scf accuracy    <          2.6E-09 Ry

     iteration #  5     ecut=    35.00 Ry     beta= 0.35
     Davidson diagonalization with overlap
     ethr =  1.02E-11,  avg # of iterations =  1.0

     negative rho (up, down):  1.058E-04 0.000E+00

     total cpu time spent up to now is       92.9 secs

     End of self-consistent calculation

          k = 0.0000 0.0000 0.0000 (  4067 PWs)   bands (ev):

   -61.0320 -37.1442 -36.9757 -36.9757 -19.5181 -18.2567 -11.0654  -8.3535
    -8.3534  -7.4019  -7.3088  -7.3086  -5.1697  -3.0906  -3.0905  -2.9113
    -2.9112

          k = 0.0000 0.2887 0.0000 (  4106 PWs)   bands (ev):

   -61.0147 -37.1622 -37.1051 -37.0176 -18.8383 -18.0477 -10.4884  -9.5661
    -9.0923  -8.1999  -7.6963  -7.1086  -6.0576  -3.2890  -3.2474  -2.7692
    -1.9985

          k = 0.0000-0.5774 0.0000 (  4108 PWs)   bands (ev):

   -60.9972 -37.3423 -37.0650 -37.0591 -18.0348 -17.8064 -11.1596 -10.1640
    -9.6182  -8.8212  -7.4795  -7.0997  -6.1679  -3.1240  -2.6864  -1.9075
    -1.3508

          k = 0.2500 0.1443 0.0000 (  4106 PWs)   bands (ev):

   -61.0147 -37.1622 -37.1051 -37.0176 -18.8383 -18.0477 -10.4884  -9.5662
    -9.0924  -8.1998  -7.6962  -7.1086  -6.0577  -3.2890  -3.2475  -2.7692
    -1.9985

          k = 0.2500 0.4330 0.0000 (  4102 PWs)   bands (ev):

   -60.9971 -37.2749 -37.1284 -37.0653 -18.0483 -17.7892 -10.5527 -10.3549
    -9.3743  -8.7551  -8.5661  -7.3483  -6.0307  -3.3191  -2.6280  -2.3180
    -1.1402

          k =-0.5000-0.2887 0.0000 (  4108 PWs)   bands (ev):

   -60.9972 -37.3423 -37.0650 -37.0591 -18.0348 -17.8065 -11.1597 -10.1639
    -9.6182  -8.8211  -7.4795  -7.0996  -6.1679  -3.1240  -2.6864  -1.9074
    -1.3508

          k =-0.5000 0.0000 0.0000 (  4102 PWs)   bands (ev):

   -60.9971 -37.2749 -37.1284 -37.0653 -18.0483 -17.7892 -10.5526 -10.3549
    -9.3743  -8.7551  -8.5661  -7.3483  -6.0307  -3.3191  -2.6281  -2.3180
    -1.1401

     the Fermi energy is    -6.0563 ev

!    total energy              =    -160.12132707 Ry
     estimated scf accuracy    <          8.0E-11 Ry
     smearing contrib. (-TS)   =      -0.00476851 Ry
     internal energy E=F+TS    =    -160.11655857 Ry

     The total energy is F=E-TS. E is the sum of the following terms:
     one-electron contribution =   -1367.17898407 Ry
     hartree contribution      =     679.44323977 Ry
     xc contribution           =     -28.72642502 Ry
     ewald contribution        =     556.34561075 Ry

     convergence has been achieved in   5 iterations

     negative rho (up, down):  1.058E-04 0.000E+00

     Forces acting on atoms (cartesian axes, Ry/au):

     atom    1 type  1   force =     0.00000000    0.00000049    0.00000000
     atom    2 type  2   force =     0.00000000   -0.00000025    0.00001578
     atom    3 type  2   force =     0.00000000   -0.00000025   -0.00001578

     Total force =     0.000022     Total SCF correction =     0.000006
     SCF correction compared to forces is large: reduce conv_thr to get better values


     Computing stress (Cartesian axis) and pressure


     negative rho (up, down):  1.058E-04 0.000E+00
          total   stress  (Ry/bohr**3)                   (kbar)     P=       -2.44
  -0.00000734   0.00000000   0.00000000           -1.08        0.00        0.00
   0.00000000  -0.00000732  -0.00000000            0.00       -1.08       -0.00
   0.00000000   0.00000000  -0.00003506            0.00        0.00       -5.16

     Energy error            =      1.3E-07 Ry
     Gradient error          =      1.6E-05 Ry/Bohr

     bfgs converged in   5 scf cycles and   4 bfgs steps
     (criteria: energy <  1.0E-04 Ry, force <  1.0E-03 Ry/Bohr)

     End of BFGS Geometry Optimization

     Final energy             =    -160.1213270744 Ry

     File ./tmp/candidate_NbS2.bfgs deleted, as requested
Begin final coordinates

ATOMIC_POSITIONS (angstrom)
Nb               0.0000000000        0.0000086449        0.0000000000
S                1.6700000000        0.9641578375        1.5692394212
S                1.6700000000        0.9641578375       -1.5692394212
End final coordinates



     Writing all to output data dir ./tmp/candidate_NbS2.save/ :
     XML data file, charge density, pseudopotentials, collected wavefunctions

     init_run     :      1.95s CPU      2.35s WALL (       1 calls)
     electrons    :     51.08s CPU     65.65s WALL (       5 calls)
     update_pot   :      0.30s CPU      0.34s WALL (       4 calls)
     forces       :      3.16s CPU      3.35s WALL (       5 calls)
     stress       :     21.85s CPU     24.53s WALL (       5 calls)

     Called by init_run:
     wfcinit      :      0.33s CPU      0.35s WALL (       1 calls)
     potinit      :      0.30s CPU      0.32s WALL (       1 calls)
     hinit0       :      0.95s CPU      1.01s WALL (       1 calls)

     Called by electrons:
     c_bands      :     16.57s CPU     17.21s WALL (      37 calls)
     sum_band     :     19.00s CPU     26.00s WALL (      37 calls)
     v_of_rho     :      2.47s CPU      2.61s WALL (      40 calls)
     newd         :     14.67s CPU     22.65s WALL (      40 calls)
     mix_rho      :      0.23s CPU      0.25s WALL (      37 calls)

     Called by c_bands:
     init_us_2    :      0.84s CPU      0.88s WALL (     595 calls)
     cegterg      :     14.82s CPU     15.39s WALL (     259 calls)

     Called by *egterg:
     cdiaghg      :      0.25s CPU      0.27s WALL (     894 calls)
     h_psi        :     12.22s CPU     12.68s WALL (     943 calls)
     s_psi        :      0.59s CPU      0.61s WALL (     943 calls)
     g_psi        :      0.13s CPU      0.14s WALL (     677 calls)

     Called by h_psi:
     h_psi:calbec :      0.78s CPU      0.81s WALL (     943 calls)
     vloc_psi     :     10.73s CPU     11.13s WALL (     943 calls)
                                        0.00s GPU  (     943 calls)
     add_vuspsi   :      0.63s CPU      0.66s WALL (     943 calls)

     General routines
     calbec       :      1.62s CPU      1.68s WALL (    1797 calls)
     fft          :      1.74s CPU      1.82s WALL (     641 calls)
     ffts         :      0.25s CPU      0.26s WALL (      77 calls)
     fftw         :     10.85s CPU     11.24s WALL (   27143 calls)
     interpolate  :      0.33s CPU      0.34s WALL (      40 calls)

     Parallel routines

     PWSCF        :   1m19.93s CPU   1m38.80s WALL


   This run was terminated on:  12:54:52  10May2026            

=------------------------------------------------------------------------------=
   JOB DONE.
=------------------------------------------------------------------------------=
