
     Program PWSCF v.7.5 starts on 10May2026 at 13: 4:22 

     This program is part of the open-source Quantum ESPRESSO suite
     for quantum simulation of materials; please cite
         "P. Giannozzi et al., J. Phys.:Condens. Matter 21 395502 (2009);
         "P. Giannozzi et al., J. Phys.:Condens. Matter 29 465901 (2017);
         "P. Giannozzi et al., J. Chem. Phys. 152 154105 (2020);
          URL http://www.quantum-espresso.org", 
     in publications or presentations arising from this work. More details at
     http://www.quantum-espresso.org/quote

     Parallel version (MPI & OpenMP), running on       1 processor cores
     Number of MPI processes:                 1
     Threads/MPI process:                     1

     MPI processes distributed on     1 nodes
     7009 MiB available memory on the printing compute node when the environment starts

     Reading input from candidate_NbS2/03_h_ads_nbtop_relax.in

     Current dimensions of program PWSCF are:
     Max number of different atomic species (ntypx) = 10
     Max number of k-points (npk) =  40000
     Max angular momentum in pseudopotentials (lmaxx) =  4
     file Nb.pbe-spn-rrkjus_psl.1.0.0.UPF: wavefunction(s)  4S 4P renormalized
     Message from routine setup:
     using ibrav=0 with symmetry is DISCOURAGED, use correct ibrav instead

     Subspace diagonalization in iterative solution of the eigenvalue problem:
     a serial algorithm will be used


     G-vector sticks info
     --------------------
     sticks:   dense  smooth     PW     G-vecs:    dense   smooth      PW
     Sum         769     379    121                92797    32775    5495

     Using Slab Decomposition



     bravais-lattice index     =            0
     lattice parameter (alat)  =       6.3117  a.u.
     unit-cell volume          =    1173.5103 (a.u.)^3
     number of atoms/cell      =            4
     number of atomic types    =            3
     number of electrons       =        26.00
     number of Kohn-Sham states=           17
     kinetic-energy cutoff     =      35.0000  Ry
     charge density cutoff     =     280.0000  Ry
     scf convergence threshold =      1.0E-07
     mixing beta               =       0.3500
     number of iterations used =            8  plain     mixing
     energy convergence thresh.=      1.0E-04
     force convergence thresh. =      1.0E-03
     Exchange-correlation= PBE
                           (   1   4   3   4   0   0   0)
     nstep                     =           50


     celldm(1)=   6.311685  celldm(2)=   0.000000  celldm(3)=   0.000000
     celldm(4)=   0.000000  celldm(5)=   0.000000  celldm(6)=   0.000000

     crystal axes: (cart. coord. in units of alat)
               a(1) = (   1.000000   0.000000   0.000000 )  
               a(2) = (  -0.500000   0.866014   0.000000 )  
               a(3) = (   0.000000   0.000000   5.389222 )  

     reciprocal axes: (cart. coord. in units 2 pi/alat)
               b(1) = (  1.000000  0.577358 -0.000000 )  
               b(2) = (  0.000000  1.154716  0.000000 )  
               b(3) = (  0.000000 -0.000000  0.185556 )  


     PseudoPot. # 1 for H  read from file:
     ./pseudos/H.pbe-rrkjus_psl.1.0.0.UPF
     MD5 check sum: 3f4114867bd07edc7f1424d066fc1888
     Pseudo is Ultrasoft, Zval =  1.0
     Generated using &quot;atomic&quot; code by A. Dal Corso  v.6.3MaX
     Using radial grid of  929 points,  2 beta functions with: 
                l(1) =   0
                l(2) =   0
     Q(r) pseudized with 0 coefficients 


     PseudoPot. # 2 for Nb read from file:
     ./pseudos/Nb.pbe-spn-rrkjus_psl.1.0.0.UPF
     MD5 check sum: 6ee677a9f002bd3e3657f443f129faad
     Pseudo is Ultrasoft + core correction, Zval = 13.0
     Generated using &quot;atomic&quot; code by A. Dal Corso  v.6.2.2
     Using radial grid of 1227 points,  6 beta functions with: 
                l(1) =   0
                l(2) =   0
                l(3) =   1
                l(4) =   1
                l(5) =   2
                l(6) =   2
     Q(r) pseudized with 0 coefficients 


     PseudoPot. # 3 for S  read from file:
     ./pseudos/S.pbe-n-rrkjus_psl.1.0.0.UPF
     MD5 check sum: 9d0fe39aa2a799ea84730884c9b010f4
     Pseudo is Ultrasoft + core correction, Zval =  6.0
     Generated using &quot;atomic&quot; code by A. Dal Corso  v.6.3
     Using radial grid of 1151 points,  6 beta functions with: 
                l(1) =   0
                l(2) =   0
                l(3) =   1
                l(4) =   1
                l(5) =   2
                l(6) =   2
     Q(r) pseudized with 0 coefficients 


     atomic species   valence    mass     pseudopotential
     H                 1.00     1.00800     H ( 1.00)
     Nb               13.00    92.90600     Nb( 1.00)
     S                 6.00    32.06000     S ( 1.00)

      2 Sym. Ops. (no inversion) found



   Cartesian axes

     site n.     atom                  positions (alat units)
         1        Nb     tau(   1) = (   0.0000000   0.0000026   0.0000000  )
         2        S      tau(   2) = (   0.5000000   0.2886700   0.4698322  )
         3        S      tau(   3) = (   0.5000000   0.2886700  -0.4698322  )
         4        H      tau(   4) = (   0.0000000   0.0000026   0.3293413  )

     number of k points=     7  Methfessel-Paxton smearing, width (Ry)=  0.0200
                       cart. coord. in units 2pi/alat
        k(    1) = (   0.0000000   0.0000000   0.0000000), wk =   0.1250000
        k(    2) = (   0.0000000   0.2886790   0.0000000), wk =   0.2500000
        k(    3) = (   0.0000000  -0.5773579   0.0000000), wk =   0.1250000
        k(    4) = (   0.2500000   0.1443395   0.0000000), wk =   0.5000000
        k(    5) = (   0.2500000   0.4330184   0.0000000), wk =   0.5000000
        k(    6) = (  -0.5000000  -0.2886790   0.0000000), wk =   0.2500000
        k(    7) = (  -0.5000000   0.0000000   0.0000000), wk =   0.2500000

     Dense  grid:    92797 G-vectors     FFT dimensions: (  36,  36, 192)

     Smooth grid:    32775 G-vectors     FFT dimensions: (  24,  24, 135)

     Estimated max dynamical RAM per process >     361.54 MB
 ----2D----2D----2D----2D----2D----2D----2D----2D----2D----2D----2D----2D
  The code is running with the 2D cutoff
  Please refer to:
  Sohier, T., Calandra, M., & Mauri, F. (2017), 
  Density functional perturbation theory for gated two-dimensional heterostructures:
  Theoretical developments and application to flexural phonons in graphene.
  Physical Review B, 96(7), 75448. https://doi.org/10.1103/PhysRevB.96.075448
 ----2D----2D----2D----2D----2D----2D----2D----2D----2D----2D----2D----2D

     Initial potential from superposition of free atoms

     starting charge      25.9986, renormalised to      26.0000

     negative rho (up, down):  1.440E-04 0.000E+00
     Starting wfcs are   22 randomized atomic wfcs

     total cpu time spent up to now is        2.7 secs

     per-process dynamical memory:    78.5 Mb

     Self-consistent Calculation

     iteration #  1     ecut=    35.00 Ry     beta= 0.35
     Davidson diagonalization with overlap
     ethr =  1.00E-02,  avg # of iterations =  2.7

     negative rho (up, down):  5.624E-05 0.000E+00

     total cpu time spent up to now is        4.8 secs

     total energy              =    -160.74931549 Ry
     estimated scf accuracy    <       0.29285417 Ry

     iteration #  2     ecut=    35.00 Ry     beta= 0.35
     Davidson diagonalization with overlap
     ethr =  1.13E-03,  avg # of iterations =  2.0

     negative rho (up, down):  6.336E-05 0.000E+00

     total cpu time spent up to now is        6.5 secs

     total energy              =    -160.76361733 Ry
     estimated scf accuracy    <       0.11016405 Ry

     iteration #  3     ecut=    35.00 Ry     beta= 0.35
     Davidson diagonalization with overlap
     ethr =  4.24E-04,  avg # of iterations =  2.0

     negative rho (up, down):  6.721E-05 0.000E+00

     total cpu time spent up to now is        8.1 secs

     total energy              =    -160.76139066 Ry
     estimated scf accuracy    <       0.05480164 Ry

     iteration #  4     ecut=    35.00 Ry     beta= 0.35
     Davidson diagonalization with overlap
     ethr =  2.11E-04,  avg # of iterations =  2.1

     negative rho (up, down):  7.624E-05 0.000E+00

     total cpu time spent up to now is       10.0 secs

     total energy              =    -160.76759104 Ry
     estimated scf accuracy    <       0.08334045 Ry

     iteration #  5     ecut=    35.00 Ry     beta= 0.35
     Davidson diagonalization with overlap
     ethr =  2.11E-04,  avg # of iterations =  2.0

     negative rho (up, down):  7.547E-05 0.000E+00

     total cpu time spent up to now is       11.8 secs

     total energy              =    -160.77640734 Ry
     estimated scf accuracy    <       0.00210844 Ry

     iteration #  6     ecut=    35.00 Ry     beta= 0.35
     Davidson diagonalization with overlap
     ethr =  8.11E-06,  avg # of iterations =  4.0

     negative rho (up, down):  1.063E-04 0.000E+00

     total cpu time spent up to now is       13.7 secs

     total energy              =    -160.77685658 Ry
     estimated scf accuracy    <       0.00054464 Ry

     iteration #  7     ecut=    35.00 Ry     beta= 0.35
     Davidson diagonalization with overlap
     ethr =  2.09E-06,  avg # of iterations =  1.9

     negative rho (up, down):  1.097E-04 0.000E+00

     total cpu time spent up to now is       15.5 secs

     total energy              =    -160.77691474 Ry
     estimated scf accuracy    <       0.00003828 Ry

     iteration #  8     ecut=    35.00 Ry     beta= 0.35
     Davidson diagonalization with overlap
     ethr =  1.47E-07,  avg # of iterations =  2.3

     negative rho (up, down):  1.084E-04 0.000E+00

     total cpu time spent up to now is       17.2 secs

     total energy              =    -160.77692130 Ry
     estimated scf accuracy    <       0.00001240 Ry

     iteration #  9     ecut=    35.00 Ry     beta= 0.35
     Davidson diagonalization with overlap
     ethr =  4.77E-08,  avg # of iterations =  2.0

     negative rho (up, down):  1.061E-04 0.000E+00

     total cpu time spent up to now is       19.1 secs

     total energy              =    -160.77692342 Ry
     estimated scf accuracy    <       0.00000220 Ry

     iteration # 10     ecut=    35.00 Ry     beta= 0.35
     Davidson diagonalization with overlap
     ethr =  8.48E-09,  avg # of iterations =  2.3

     negative rho (up, down):  1.046E-04 0.000E+00

     total cpu time spent up to now is       20.8 secs

     total energy              =    -160.77692376 Ry
     estimated scf accuracy    <       0.00000040 Ry

     iteration # 11     ecut=    35.00 Ry     beta= 0.35
     Davidson diagonalization with overlap
     ethr =  1.52E-09,  avg # of iterations =  2.1

     negative rho (up, down):  1.035E-04 0.000E+00

     total cpu time spent up to now is       22.6 secs

     End of self-consistent calculation

          k = 0.0000 0.0000 0.0000 (  4067 PWs)   bands (ev):

   -60.7522 -38.1537 -36.4355 -36.4354 -19.8294 -18.2754 -11.7898  -8.6109
    -8.3453  -8.3452  -7.4362  -7.4361  -7.4027  -3.1939  -3.1939  -2.8213
    -2.8212

          k = 0.0000 0.2887 0.0000 (  4106 PWs)   bands (ev):

   -60.7348 -38.1169 -36.6310 -36.4792 -19.1403 -18.0314 -11.6574  -9.9259
    -9.1053  -8.5295  -8.3424  -7.5610  -7.1031  -3.9117  -3.1062  -2.8839
    -2.0559

          k = 0.0000-0.5774 0.0000 (  4108 PWs)   bands (ev):

   -60.7170 -38.0791 -36.8194 -36.5223 -18.3322 -17.6866 -12.6661 -10.3138
    -9.9963  -9.1011  -7.9167  -7.3878  -7.1333  -3.9409  -2.7546  -2.0533
    -1.3712

          k = 0.2500 0.1443 0.0000 (  4106 PWs)   bands (ev):

   -60.7348 -38.1169 -36.6310 -36.4791 -19.1403 -18.0314 -11.6575  -9.9259
    -9.1053  -8.5293  -8.3424  -7.5609  -7.1031  -3.9117  -3.1062  -2.8838
    -2.0559

          k = 0.2500 0.4330 0.0000 (  4102 PWs)   bands (ev):

   -60.7170 -38.0794 -36.7490 -36.5950 -18.3423 -17.6773 -12.3593 -10.5638
    -9.5917  -9.2301  -8.6584  -7.3895  -6.9322  -4.5824  -2.3778  -2.3546
    -1.1843

          k =-0.5000-0.2887 0.0000 (  4108 PWs)   bands (ev):

   -60.7171 -38.0791 -36.8194 -36.5223 -18.3322 -17.6866 -12.6661 -10.3138
    -9.9963  -9.1010  -7.9167  -7.3878  -7.1332  -3.9410  -2.7546  -2.0532
    -1.3712

          k =-0.5000 0.0000 0.0000 (  4102 PWs)   bands (ev):

   -60.7170 -38.0794 -36.7490 -36.5950 -18.3424 -17.6773 -12.3593 -10.5637
    -9.5917  -9.2301  -8.6584  -7.3895  -6.9321  -4.5825  -2.3778  -2.3547
    -1.1843

     the Fermi energy is    -5.7562 ev

!    total energy              =    -160.77692383 Ry
     estimated scf accuracy    <       0.00000004 Ry
     smearing contrib. (-TS)   =       0.00000000 Ry
     internal energy E=F+TS    =    -160.77692383 Ry

     The total energy is F=E-TS. E is the sum of the following terms:
     one-electron contribution =   -1480.12316948 Ry
     hartree contribution      =     736.18269109 Ry
     xc contribution           =     -29.90505193 Ry
     ewald contribution        =     613.06860649 Ry

     convergence has been achieved in  11 iterations

     negative rho (up, down):  1.035E-04 0.000E+00

     Forces acting on atoms (cartesian axes, Ry/au):

     atom    1 type  2   force =     0.00000000   -0.00000473   -1.16541319
     atom    2 type  3   force =     0.00000000    0.00000433   -0.01034248
     atom    3 type  3   force =     0.00000000    0.00000077    0.01231062
     atom    4 type  1   force =     0.00000000   -0.00000037    1.16344506

     Total force =     1.646831     Total SCF correction =     0.001075


     Computing stress (Cartesian axis) and pressure


     negative rho (up, down):  1.035E-04 0.000E+00
          total   stress  (Ry/bohr**3)                   (kbar)     P=      108.90
   0.00013042   0.00000000   0.00000000           19.19        0.00        0.00
   0.00000000   0.00013046   0.00000000            0.00       19.19        0.00
   0.00000000   0.00000000   0.00196000            0.00        0.00      288.33


     BFGS Geometry Optimization
     Energy error            =      2.7E+00 Ry
     Gradient error          =      1.2E+00 Ry/Bohr

     number of scf cycles    =   1
     number of bfgs steps    =   0

     energy             new  =    -160.7769238259 Ry

     new trust radius        =       0.5000000000 bohr
     new conv_thr            =       0.0000001000 Ry


ATOMIC_POSITIONS (angstrom)
Nb               0.0000000000        0.0000075710       -0.2645886054
S                1.6700000000        0.9641588212        1.5668913246
S                1.6700000000        0.9641580127       -1.5664444909
H                0.0000000000        0.0000085598        1.3641417717



     Writing config-only to output data dir ./tmp/candidate_NbS2_H_nbtop.save/ :
     XML data file
     NEW-OLD atomic charge density approx. for the potential

     negative rho (up, down):  1.589E-04 0.000E+00

     total cpu time spent up to now is       29.3 secs

     per-process dynamical memory:   110.0 Mb

     Self-consistent Calculation

     iteration #  1     ecut=    35.00 Ry     beta= 0.35
     Davidson diagonalization with overlap
     ethr =  1.00E-06,  avg # of iterations = 14.4

     negative rho (up, down):  1.361E-04 0.000E+00

     total cpu time spent up to now is       32.5 secs

     total energy              =    -161.13952163 Ry
     estimated scf accuracy    <       0.14512795 Ry

     iteration #  2     ecut=    35.00 Ry     beta= 0.35
     Davidson diagonalization with overlap
     ethr =  5.58E-04,  avg # of iterations =  3.3

     negative rho (up, down):  2.332E-04 0.000E+00

     total cpu time spent up to now is       34.2 secs

     total energy              =    -161.10779335 Ry
     estimated scf accuracy    <       0.41884520 Ry

     iteration #  3     ecut=    35.00 Ry     beta= 0.35
     Davidson diagonalization with overlap
     ethr =  5.58E-04,  avg # of iterations =  2.7

     negative rho (up, down):  1.884E-04 0.000E+00

     total cpu time spent up to now is       36.0 secs

     total energy              =    -161.16809844 Ry
     estimated scf accuracy    <       0.08084680 Ry

     iteration #  4     ecut=    35.00 Ry     beta= 0.35
     Davidson diagonalization with overlap
     ethr =  3.11E-04,  avg # of iterations =  1.1

     negative rho (up, down):  1.098E-04 0.000E+00

     total cpu time spent up to now is       37.7 secs

     total energy              =    -161.17543880 Ry
     estimated scf accuracy    <       0.00894129 Ry

     iteration #  5     ecut=    35.00 Ry     beta= 0.35
     Davidson diagonalization with overlap
     ethr =  3.44E-05,  avg # of iterations =  2.4

     negative rho (up, down):  1.414E-04 0.000E+00

     total cpu time spent up to now is       39.5 secs

     total energy              =    -161.17666290 Ry
     estimated scf accuracy    <       0.00091162 Ry

     iteration #  6     ecut=    35.00 Ry     beta= 0.35
     Davidson diagonalization with overlap
     ethr =  3.51E-06,  avg # of iterations =  3.3

     negative rho (up, down):  1.363E-04 0.000E+00

     total cpu time spent up to now is       41.4 secs

     total energy              =    -161.17677332 Ry
     estimated scf accuracy    <       0.00027275 Ry

     iteration #  7     ecut=    35.00 Ry     beta= 0.35
     Davidson diagonalization with overlap
     ethr =  1.05E-06,  avg # of iterations =  2.0

     negative rho (up, down):  1.209E-04 0.000E+00

     total cpu time spent up to now is       43.5 secs

     total energy              =    -161.17683989 Ry
     estimated scf accuracy    <       0.00003619 Ry

     iteration #  8     ecut=    35.00 Ry     beta= 0.35
     Davidson diagonalization with overlap
     ethr =  1.39E-07,  avg # of iterations =  2.6

     negative rho (up, down):  1.128E-04 0.000E+00

     total cpu time spent up to now is       46.0 secs

     total energy              =    -161.17684212 Ry
     estimated scf accuracy    <       0.00000649 Ry

     iteration #  9     ecut=    35.00 Ry     beta= 0.35
     Davidson diagonalization with overlap
     ethr =  2.50E-08,  avg # of iterations =  3.1

     negative rho (up, down):  1.084E-04 0.000E+00

     total cpu time spent up to now is       48.5 secs

     total energy              =    -161.17684397 Ry
     estimated scf accuracy    <       0.00000111 Ry

     iteration # 10     ecut=    35.00 Ry     beta= 0.35
     Davidson diagonalization with overlap
     ethr =  4.25E-09,  avg # of iterations =  1.9

     negative rho (up, down):  1.045E-04 0.000E+00

     total cpu time spent up to now is       50.2 secs

     End of self-consistent calculation

          k = 0.0000 0.0000 0.0000 (  4067 PWs)   bands (ev):

   -60.4223 -36.7753 -36.4092 -36.4092 -20.0157 -18.5810 -11.1271  -8.7743
    -8.7742  -8.4364  -7.1026  -7.1024  -6.5506  -3.7757  -3.7757  -1.8353
    -1.8352

          k = 0.0000 0.2887 0.0000 (  4106 PWs)   bands (ev):

   -60.4039 -36.7350 -36.6104 -36.4543 -19.2495 -18.2856 -11.2639 -10.1264
    -9.5011  -8.6463  -8.0227  -7.5371  -6.0624  -4.0028  -3.5559  -2.4196
    -1.2513

          k = 0.0000-0.5774 0.0000 (  4108 PWs)   bands (ev):

   -60.3853 -36.8094 -36.6883 -36.4988 -18.2009 -17.9602 -13.1214 -10.8252
    -9.3640  -9.0063  -7.8915  -7.3450  -6.1905  -3.4240  -2.8150  -2.7491
    -1.1296

          k = 0.2500 0.1443 0.0000 (  4106 PWs)   bands (ev):

   -60.4039 -36.7350 -36.6104 -36.4542 -19.2495 -18.2856 -11.2640 -10.1264
    -9.5011  -8.6462  -8.0228  -7.5370  -6.0624  -4.0029  -3.5558  -2.4195
    -1.2513

          k = 0.2500 0.4330 0.0000 (  4102 PWs)   bands (ev):

   -60.3852 -36.7392 -36.6868 -36.5734 -18.2265 -17.9512 -12.7178 -10.5593
    -9.6110  -9.4033  -8.6350  -7.4075  -5.9874  -3.9542  -2.6344  -1.5298
    -1.5156

          k =-0.5000-0.2887 0.0000 (  4108 PWs)   bands (ev):

   -60.3853 -36.8094 -36.6883 -36.4988 -18.2010 -17.9603 -13.1214 -10.8252
    -9.3640  -9.0061  -7.8916  -7.3449  -6.1906  -3.4240  -2.8151  -2.7491
    -1.1296

          k =-0.5000 0.0000 0.0000 (  4102 PWs)   bands (ev):

   -60.3852 -36.7392 -36.6868 -36.5734 -18.2265 -17.9513 -12.7178 -10.5593
    -9.6110  -9.4033  -8.6350  -7.4075  -5.9874  -3.9542  -2.6345  -1.5298
    -1.5156

     the Fermi energy is    -4.9974 ev

!    total energy              =    -161.17684413 Ry
     estimated scf accuracy    <       0.00000004 Ry
     smearing contrib. (-TS)   =       0.00000022 Ry
     internal energy E=F+TS    =    -161.17684435 Ry

     The total energy is F=E-TS. E is the sum of the following terms:
     one-electron contribution =   -1466.21928583 Ry
     hartree contribution      =     729.22443063 Ry
     xc contribution           =     -29.63045417 Ry
     ewald contribution        =     605.44846502 Ry

     convergence has been achieved in  10 iterations

     negative rho (up, down):  1.045E-04 0.000E+00

     Forces acting on atoms (cartesian axes, Ry/au):

     atom    1 type  2   force =     0.00000000   -0.00000103    0.12001666
     atom    2 type  3   force =     0.00000000   -0.00000303   -0.07991986
     atom    3 type  3   force =     0.00000000    0.00000227   -0.14811792
     atom    4 type  1   force =     0.00000000    0.00000179    0.10802112

     Total force =     0.233235     Total SCF correction =     0.001119


     Computing stress (Cartesian axis) and pressure


     negative rho (up, down):  1.045E-04 0.000E+00
          total   stress  (Ry/bohr**3)                   (kbar)     P=       35.45
   0.00020174   0.00000000   0.00000000           29.68        0.00        0.00
   0.00000000   0.00020178  -0.00000000            0.00       29.68       -0.00
   0.00000000  -0.00000000   0.00031953            0.00       -0.00       47.00

     Energy error            =      4.0E-01 Ry
     Gradient error          =      1.5E-01 Ry/Bohr

     number of scf cycles    =   2
     number of bfgs steps    =   1

     energy             old  =    -160.7769238259 Ry
     energy             new  =    -161.1768441326 Ry

     CASE: energy            _new < energy            _old

     new trust radius        =       0.1470100358 bohr
     new conv_thr            =       0.0000001000 Ry


ATOMIC_POSITIONS (angstrom)
Nb               0.0000000000        0.0000069739       -0.2156068782
S                1.6700000000        0.9641572773        1.5247093053
S                1.6700000000        0.9641592148       -1.6442388516
H                0.0000000000        0.0000094988        1.4351364245



     Writing config-only to output data dir ./tmp/candidate_NbS2_H_nbtop.save/ :
     XML data file
     NEW-OLD atomic charge density approx. for the potential

     negative rho (up, down):  1.385E-04 0.000E+00

     total cpu time spent up to now is       56.8 secs

     per-process dynamical memory:   110.0 Mb

     Self-consistent Calculation

     iteration #  1     ecut=    35.00 Ry     beta= 0.35
     Davidson diagonalization with overlap
     ethr =  1.00E-06,  avg # of iterations = 10.3

     negative rho (up, down):  1.259E-04 0.000E+00

     total cpu time spent up to now is       59.6 secs

     total energy              =    -161.21843761 Ry
     estimated scf accuracy    <       0.00220098 Ry

     iteration #  2     ecut=    35.00 Ry     beta= 0.35
     Davidson diagonalization with overlap
     ethr =  8.47E-06,  avg # of iterations =  2.0

     negative rho (up, down):  1.235E-04 0.000E+00

     total cpu time spent up to now is       61.7 secs

     total energy              =    -161.21869389 Ry
     estimated scf accuracy    <       0.00128407 Ry

     iteration #  3     ecut=    35.00 Ry     beta= 0.35
     Davidson diagonalization with overlap
     ethr =  4.94E-06,  avg # of iterations =  2.0

     negative rho (up, down):  1.180E-04 0.000E+00

     total cpu time spent up to now is       63.5 secs

     total energy              =    -161.21880043 Ry
     estimated scf accuracy    <       0.00033340 Ry

     iteration #  4     ecut=    35.00 Ry     beta= 0.35
     Davidson diagonalization with overlap
     ethr =  1.28E-06,  avg # of iterations =  2.6

     negative rho (up, down):  1.130E-04 0.000E+00

     total cpu time spent up to now is       65.3 secs

     total energy              =    -161.21880484 Ry
     estimated scf accuracy    <       0.00072474 Ry

     iteration #  5     ecut=    35.00 Ry     beta= 0.35
     Davidson diagonalization with overlap
     ethr =  1.28E-06,  avg # of iterations =  2.3

     negative rho (up, down):  1.155E-04 0.000E+00

     total cpu time spent up to now is       67.2 secs

     total energy              =    -161.21888728 Ry
     estimated scf accuracy    <       0.00002179 Ry

     iteration #  6     ecut=    35.00 Ry     beta= 0.35
     Davidson diagonalization with overlap
     ethr =  8.38E-08,  avg # of iterations =  4.4

     negative rho (up, down):  1.122E-04 0.000E+00

     total cpu time spent up to now is       69.2 secs

     total energy              =    -161.21889099 Ry
     estimated scf accuracy    <       0.00001124 Ry

     iteration #  7     ecut=    35.00 Ry     beta= 0.35
     Davidson diagonalization with overlap
     ethr =  4.32E-08,  avg # of iterations =  1.9

     negative rho (up, down):  1.111E-04 0.000E+00

     total cpu time spent up to now is       71.1 secs

     total energy              =    -161.21889221 Ry
     estimated scf accuracy    <       0.00000040 Ry

     iteration #  8     ecut=    35.00 Ry     beta= 0.35
     Davidson diagonalization with overlap
     ethr =  1.54E-09,  avg # of iterations =  4.4

     negative rho (up, down):  1.091E-04 0.000E+00

     total cpu time spent up to now is       73.1 secs

     End of self-consistent calculation

          k = 0.0000 0.0000 0.0000 (  4067 PWs)   bands (ev):

   -60.4277 -36.7492 -36.3851 -36.3851 -20.0784 -18.4072 -11.1168  -8.2271
    -8.2270  -8.0214  -7.3107  -7.3105  -6.9405  -3.5019  -3.5019  -2.2532
    -2.2531

          k = 0.0000 0.2887 0.0000 (  4106 PWs)   bands (ev):

   -60.4100 -36.7081 -36.5774 -36.4282 -19.3329 -18.0881 -11.3853  -9.9465
    -9.2710  -8.2638  -7.8212  -7.6489  -6.3304  -3.7554  -3.3198  -2.6542
    -1.5741

          k = 0.0000-0.5774 0.0000 (  4108 PWs)   bands (ev):

   -60.3920 -36.7640 -36.6649 -36.4709 -18.3041 -17.7252 -13.2642 -10.5530
    -9.3797  -8.8667  -7.8312  -7.2915  -6.3736  -3.3667  -2.6863  -2.5508
    -1.1953

          k = 0.2500 0.1443 0.0000 (  4106 PWs)   bands (ev):

   -60.4100 -36.7081 -36.5774 -36.4282 -19.3329 -18.0881 -11.3853  -9.9465
    -9.2710  -8.2637  -7.8213  -7.6488  -6.3304  -3.7554  -3.3197  -2.6542
    -1.5741

          k = 0.2500 0.4330 0.0000 (  4102 PWs)   bands (ev):

   -60.3919 -36.6955 -36.6644 -36.5423 -18.3346 -17.7135 -12.8559 -10.3707
    -9.6600  -9.2867  -8.4896  -7.3902  -5.9456  -3.7373  -2.5037  -1.8057
    -1.3148

          k =-0.5000-0.2887 0.0000 (  4108 PWs)   bands (ev):

   -60.3920 -36.7640 -36.6649 -36.4709 -18.3041 -17.7253 -13.2642 -10.5530
    -9.3797  -8.8665  -7.8312  -7.2913  -6.3736  -3.3667  -2.6863  -2.5508
    -1.1953

          k =-0.5000 0.0000 0.0000 (  4102 PWs)   bands (ev):

   -60.3919 -36.6955 -36.6644 -36.5423 -18.3346 -17.7136 -12.8559 -10.3707
    -9.6600  -9.2867  -8.4896  -7.3902  -5.9455  -3.7374  -2.5038  -1.8057
    -1.3147

     the Fermi energy is    -4.8586 ev

!    total energy              =    -161.21889234 Ry
     estimated scf accuracy    <       0.00000007 Ry
     smearing contrib. (-TS)   =       0.00000002 Ry
     internal energy E=F+TS    =    -161.21889236 Ry

     The total energy is F=E-TS. E is the sum of the following terms:
     one-electron contribution =   -1460.46124369 Ry
     hartree contribution      =     726.34840941 Ry
     xc contribution           =     -29.57617560 Ry
     ewald contribution        =     602.47011753 Ry

     convergence has been achieved in   8 iterations

     negative rho (up, down):  1.091E-04 0.000E+00

     Forces acting on atoms (cartesian axes, Ry/au):

     atom    1 type  2   force =     0.00000000   -0.00000272    0.04248068
     atom    2 type  3   force =     0.00000000   -0.00000031   -0.06014889
     atom    3 type  3   force =     0.00000000    0.00000180   -0.06859039
     atom    4 type  1   force =     0.00000000    0.00000122    0.08625861

     Total force =     0.132543     Total SCF correction =     0.001101


     Computing stress (Cartesian axis) and pressure


     negative rho (up, down):  1.091E-04 0.000E+00
          total   stress  (Ry/bohr**3)                   (kbar)     P=       18.95
   0.00010351   0.00000000   0.00000000           15.23        0.00        0.00
   0.00000000   0.00010355   0.00000000            0.00       15.23        0.00
   0.00000000   0.00000000   0.00017939            0.00        0.00       26.39

     Energy error            =      4.2E-02 Ry
     Gradient error          =      8.6E-02 Ry/Bohr

     number of scf cycles    =   3
     number of bfgs steps    =   2

     energy             old  =    -161.1768441326 Ry
     energy             new  =    -161.2188923417 Ry

     CASE: energy            _new < energy            _old

     new trust radius        =       0.1617110394 bohr
     new conv_thr            =       0.0000000863 Ry


ATOMIC_POSITIONS (angstrom)
Nb               0.0000000000        0.0000044514       -0.1723650612
S                1.6700000000        0.9641568393        1.4659506437
S                1.6700000000        0.9641609713       -1.7142958038
H                0.0000000000        0.0000107028        1.5207102213



     Writing config-only to output data dir ./tmp/candidate_NbS2_H_nbtop.save/ :
     XML data file
     NEW-OLD atomic charge density approx. for the potential

     negative rho (up, down):  1.274E-04 0.000E+00

     total cpu time spent up to now is       80.2 secs

     per-process dynamical memory:   110.0 Mb

     Self-consistent Calculation

     iteration #  1     ecut=    35.00 Ry     beta= 0.35
     Davidson diagonalization with overlap
     ethr =  1.00E-06,  avg # of iterations = 10.7

     negative rho (up, down):  1.169E-04 0.000E+00

     total cpu time spent up to now is       83.2 secs

     total energy              =    -161.24059914 Ry
     estimated scf accuracy    <       0.00180246 Ry

     iteration #  2     ecut=    35.00 Ry     beta= 0.35
     Davidson diagonalization with overlap
     ethr =  6.93E-06,  avg # of iterations =  2.0

     negative rho (up, down):  1.163E-04 0.000E+00

     total cpu time spent up to now is       85.1 secs

     total energy              =    -161.24065108 Ry
     estimated scf accuracy    <       0.00123323 Ry

     iteration #  3     ecut=    35.00 Ry     beta= 0.35
     Davidson diagonalization with overlap
     ethr =  4.74E-06,  avg # of iterations =  2.1

     negative rho (up, down):  1.125E-04 0.000E+00

     total cpu time spent up to now is       87.0 secs

     total energy              =    -161.24073963 Ry
     estimated scf accuracy    <       0.00069596 Ry

     iteration #  4     ecut=    35.00 Ry     beta= 0.35
     Davidson diagonalization with overlap
     ethr =  2.68E-06,  avg # of iterations =  2.1

     negative rho (up, down):  1.062E-04 0.000E+00

     total cpu time spent up to now is       88.9 secs

     total energy              =    -161.24083185 Ry
     estimated scf accuracy    <       0.00039133 Ry

     iteration #  5     ecut=    35.00 Ry     beta= 0.35
     Davidson diagonalization with overlap
     ethr =  1.51E-06,  avg # of iterations =  1.1

     negative rho (up, down):  1.105E-04 0.000E+00

     total cpu time spent up to now is       90.8 secs

     total energy              =    -161.24087545 Ry
     estimated scf accuracy    <       0.00001649 Ry

     iteration #  6     ecut=    35.00 Ry     beta= 0.35
     Davidson diagonalization with overlap
     ethr =  6.34E-08,  avg # of iterations =  5.0

     negative rho (up, down):  1.059E-04 0.000E+00

     total cpu time spent up to now is       92.8 secs

     total energy              =    -161.24087830 Ry
     estimated scf accuracy    <       0.00002182 Ry

     iteration #  7     ecut=    35.00 Ry     beta= 0.35
     Davidson diagonalization with overlap
     ethr =  6.34E-08,  avg # of iterations =  2.1

     negative rho (up, down):  1.048E-04 0.000E+00

     total cpu time spent up to now is       94.5 secs

     total energy              =    -161.24087980 Ry
     estimated scf accuracy    <       0.00000122 Ry

     iteration #  8     ecut=    35.00 Ry     beta= 0.35
     Davidson diagonalization with overlap
     ethr =  4.71E-09,  avg # of iterations =  4.7

     negative rho (up, down):  1.038E-04 0.000E+00

     total cpu time spent up to now is       96.3 secs

     total energy              =    -161.24088018 Ry
     estimated scf accuracy    <       0.00000027 Ry

     iteration #  9     ecut=    35.00 Ry     beta= 0.35
     Davidson diagonalization with overlap
     ethr =  1.03E-09,  avg # of iterations =  2.0

     negative rho (up, down):  1.034E-04 0.000E+00

     total cpu time spent up to now is       98.1 secs

     total energy              =    -161.24088016 Ry
     estimated scf accuracy    <       0.00000010 Ry

     iteration # 10     ecut=    35.00 Ry     beta= 0.35
     Davidson diagonalization with overlap
     ethr =  3.66E-10,  avg # of iterations =  2.9

     negative rho (up, down):  1.028E-04 0.000E+00

     total cpu time spent up to now is       99.9 secs

     End of self-consistent calculation

          k = 0.0000 0.0000 0.0000 (  4067 PWs)   bands (ev):

   -60.4272 -36.7167 -36.3721 -36.3721 -20.1568 -18.2198 -11.2375  -8.1088
    -8.1087  -7.5338  -7.2523  -7.2521  -7.1359  -3.2007  -3.2006  -2.5879
    -2.5878

          k = 0.0000 0.2887 0.0000 (  4106 PWs)   bands (ev):

   -60.4098 -36.6755 -36.5605 -36.4144 -19.4397 -17.8712 -11.5848  -9.8768
    -8.9808  -8.3396  -7.5543  -7.4106  -6.5597  -3.5047  -3.1393  -2.8542
    -1.7743

          k = 0.0000-0.5774 0.0000 (  4108 PWs)   bands (ev):

   -60.3921 -36.7422 -36.6334 -36.4563 -18.4761 -17.4440 -13.3549 -10.3286
    -9.4257  -8.9206  -7.7245  -7.0914  -6.5127  -3.3200  -2.6232  -2.3626
    -1.2206

          k = 0.2500 0.1443 0.0000 (  4106 PWs)   bands (ev):

   -60.4098 -36.6755 -36.5605 -36.4144 -19.4397 -17.8712 -11.5849  -9.8768
    -8.9809  -8.3395  -7.5543  -7.4105  -6.5596  -3.5047  -3.1392  -2.8542
    -1.7743

          k = 0.2500 0.4330 0.0000 (  4102 PWs)   bands (ev):

   -60.3920 -36.6742 -36.6337 -36.5263 -18.5021 -17.4363 -12.9474 -10.3753
    -9.5864  -9.2272  -8.3029  -7.3311  -5.9525  -3.5618  -2.4010  -2.0096
    -1.1798

          k =-0.5000-0.2887 0.0000 (  4108 PWs)   bands (ev):

   -60.3922 -36.7422 -36.6334 -36.4563 -18.4762 -17.4440 -13.3550 -10.3286
    -9.4256  -8.9204  -7.7246  -7.0913  -6.5127  -3.3199  -2.6232  -2.3626
    -1.2205

          k =-0.5000 0.0000 0.0000 (  4102 PWs)   bands (ev):

   -60.3920 -36.6742 -36.6337 -36.5263 -18.5022 -17.4363 -12.9474 -10.3753
    -9.5864  -9.2272  -8.3029  -7.3311  -5.9525  -3.5618  -2.4010  -2.0096
    -1.1798

     the Fermi energy is    -4.7602 ev

!    total energy              =    -161.24088020 Ry
     estimated scf accuracy    <       0.00000001 Ry
     smearing contrib. (-TS)   =       0.00000000 Ry
     internal energy E=F+TS    =    -161.24088020 Ry

     The total energy is F=E-TS. E is the sum of the following terms:
     one-electron contribution =   -1457.17917787 Ry
     hartree contribution      =     724.72516741 Ry
     xc contribution           =     -29.54094051 Ry
     ewald contribution        =     600.75407077 Ry

     convergence has been achieved in  10 iterations

     negative rho (up, down):  1.028E-04 0.000E+00

     Forces acting on atoms (cartesian axes, Ry/au):

     atom    1 type  2   force =     0.00000000   -0.00000102   -0.02038006
     atom    2 type  3   force =     0.00000000    0.00000129   -0.02752403
     atom    3 type  3   force =     0.00000000   -0.00000036   -0.00615672
     atom    4 type  1   force =     0.00000000    0.00000008    0.05406081

     Total force =     0.064291     Total SCF correction =     0.000539


     Computing stress (Cartesian axis) and pressure


     negative rho (up, down):  1.028E-04 0.000E+00
          total   stress  (Ry/bohr**3)                   (kbar)     P=        8.74
   0.00006309   0.00000000   0.00000000            9.28        0.00        0.00
   0.00000000   0.00006314   0.00000001            0.00        9.29        0.00
   0.00000000   0.00000001   0.00005207            0.00        0.00        7.66

     Energy error            =      2.2E-02 Ry
     Gradient error          =      5.4E-02 Ry/Bohr

     number of scf cycles    =   4
     number of bfgs steps    =   3

     energy             old  =    -161.2188923417 Ry
     energy             new  =    -161.2408801988 Ry

     CASE: energy            _new < energy            _old

     new trust radius        =       0.1046741108 bohr
     new conv_thr            =       0.0000000541 Ry


ATOMIC_POSITIONS (angstrom)
Nb               0.0000000000        0.0000030963       -0.1585874131
S                1.6700000000        0.9641575167        1.4265497170
S                1.6700000000        0.9641612050       -1.7440636792
H                0.0000000000        0.0000111468        1.5761013753



     Writing config-only to output data dir ./tmp/candidate_NbS2_H_nbtop.save/ :
     XML data file
     NEW-OLD atomic charge density approx. for the potential

     negative rho (up, down):  1.049E-04 0.000E+00

     total cpu time spent up to now is      106.8 secs

     per-process dynamical memory:   110.0 Mb

     Self-consistent Calculation

     iteration #  1     ecut=    35.00 Ry     beta= 0.35
     Davidson diagonalization with overlap
     ethr =  1.00E-06,  avg # of iterations =  9.1

     negative rho (up, down):  1.036E-04 0.000E+00

     total cpu time spent up to now is      109.5 secs

     total energy              =    -161.24537041 Ry
     estimated scf accuracy    <       0.00053593 Ry

     iteration #  2     ecut=    35.00 Ry     beta= 0.35
     Davidson diagonalization with overlap
     ethr =  2.06E-06,  avg # of iterations =  2.1

     negative rho (up, down):  1.057E-04 0.000E+00

     total cpu time spent up to now is      111.3 secs

     total energy              =    -161.24532755 Ry
     estimated scf accuracy    <       0.00066346 Ry

     iteration #  3     ecut=    35.00 Ry     beta= 0.35
     Davidson diagonalization with overlap
     ethr =  2.06E-06,  avg # of iterations =  2.1

     negative rho (up, down):  1.033E-04 0.000E+00

     total cpu time spent up to now is      113.2 secs

     total energy              =    -161.24541837 Ry
     estimated scf accuracy    <       0.00026225 Ry

     iteration #  4     ecut=    35.00 Ry     beta= 0.35
     Davidson diagonalization with overlap
     ethr =  1.01E-06,  avg # of iterations =  2.0

     negative rho (up, down):  1.022E-04 0.000E+00

     total cpu time spent up to now is      115.0 secs

     total energy              =    -161.24544819 Ry
     estimated scf accuracy    <       0.00005282 Ry

     iteration #  5     ecut=    35.00 Ry     beta= 0.35
     Davidson diagonalization with overlap
     ethr =  2.03E-07,  avg # of iterations =  1.4

     negative rho (up, down):  1.033E-04 0.000E+00

     total cpu time spent up to now is      116.7 secs

     total energy              =    -161.24545415 Ry
     estimated scf accuracy    <       0.00000517 Ry

     iteration #  6     ecut=    35.00 Ry     beta= 0.35
     Davidson diagonalization with overlap
     ethr =  1.99E-08,  avg # of iterations =  3.9

     negative rho (up, down):  1.023E-04 0.000E+00

     total cpu time spent up to now is      118.7 secs

     total energy              =    -161.24545453 Ry
     estimated scf accuracy    <       0.00000246 Ry

     iteration #  7     ecut=    35.00 Ry     beta= 0.35
     Davidson diagonalization with overlap
     ethr =  9.46E-09,  avg # of iterations =  2.0

     negative rho (up, down):  1.021E-04 0.000E+00

     total cpu time spent up to now is      120.4 secs

     total energy              =    -161.24545491 Ry
     estimated scf accuracy    <       0.00000011 Ry

     iteration #  8     ecut=    35.00 Ry     beta= 0.35
     Davidson diagonalization with overlap
     ethr =  4.26E-10,  avg # of iterations =  4.1

     negative rho (up, down):  1.019E-04 0.000E+00

     total cpu time spent up to now is      122.3 secs

     total energy              =    -161.24545495 Ry
     estimated scf accuracy    <       0.00000008 Ry

     iteration #  9     ecut=    35.00 Ry     beta= 0.35
     Davidson diagonalization with overlap
     ethr =  3.15E-10,  avg # of iterations =  1.1

     negative rho (up, down):  1.018E-04 0.000E+00

     total cpu time spent up to now is      124.0 secs

     End of self-consistent calculation

          k = 0.0000 0.0000 0.0000 (  4067 PWs)   bands (ev):

   -60.4185 -36.6907 -36.3631 -36.3631 -20.1845 -18.1317 -11.3450  -8.2276
    -8.2275  -7.4622  -7.1185  -7.1184  -6.8996  -3.0434  -3.0433  -2.7000
    -2.6999

          k = 0.0000 0.2887 0.0000 (  4106 PWs)   bands (ev):

   -60.4011 -36.6493 -36.5517 -36.4054 -19.4810 -17.7727 -11.6845  -9.8745
    -8.8487  -8.4640  -7.3880  -7.2574  -6.6278  -3.3940  -3.0772  -2.9159
    -1.7971

          k = 0.0000-0.5774 0.0000 (  4108 PWs)   bands (ev):

   -60.3834 -36.7338 -36.6068 -36.4473 -18.5514 -17.3245 -13.3533 -10.2543
    -9.4518  -8.9925  -7.6426  -6.9740  -6.5475  -3.2964  -2.6109  -2.2917
    -1.1934

          k = 0.2500 0.1443 0.0000 (  4106 PWs)   bands (ev):

   -60.4011 -36.6493 -36.5517 -36.4054 -19.4810 -17.7728 -11.6846  -9.8745
    -8.8488  -8.4639  -7.3880  -7.2573  -6.6278  -3.3940  -3.0771  -2.9159
    -1.7971

          k = 0.2500 0.4330 0.0000 (  4102 PWs)   bands (ev):

   -60.3833 -36.6657 -36.6071 -36.5174 -18.5748 -17.3178 -12.9476 -10.4308
    -9.5285  -9.2053  -8.2096  -7.2796  -5.9721  -3.4857  -2.3455  -2.0618
    -1.1466

          k =-0.5000-0.2887 0.0000 (  4108 PWs)   bands (ev):

   -60.3834 -36.7338 -36.6068 -36.4473 -18.5514 -17.3245 -13.3533 -10.2543
    -9.4518  -8.9923  -7.6426  -6.9739  -6.5475  -3.2963  -2.6109  -2.2917
    -1.1934

          k =-0.5000 0.0000 0.0000 (  4102 PWs)   bands (ev):

   -60.3833 -36.6657 -36.6071 -36.5174 -18.5748 -17.3178 -12.9476 -10.4308
    -9.5284  -9.2053  -8.2096  -7.2796  -5.9721  -3.4857  -2.3456  -2.0619
    -1.1466

     the Fermi energy is    -4.7452 ev

!    total energy              =    -161.24545493 Ry
     estimated scf accuracy    <       0.00000002 Ry
     smearing contrib. (-TS)   =       0.00000000 Ry
     internal energy E=F+TS    =    -161.24545493 Ry

     The total energy is F=E-TS. E is the sum of the following terms:
     one-electron contribution =   -1457.05538582 Ry
     hartree contribution      =     724.67178406 Ry
     xc contribution           =     -29.53016610 Ry
     ewald contribution        =     600.66831293 Ry

     convergence has been achieved in   9 iterations

     negative rho (up, down):  1.018E-04 0.000E+00

     Forces acting on atoms (cartesian axes, Ry/au):

     atom    1 type  2   force =     0.00000000    0.00000021   -0.03842464
     atom    2 type  3   force =     0.00000000    0.00000022   -0.00504039
     atom    3 type  3   force =     0.00000000   -0.00000041    0.01409588
     atom    4 type  1   force =     0.00000000   -0.00000002    0.02936914

     Total force =     0.050627     Total SCF correction =     0.000499


     Computing stress (Cartesian axis) and pressure


     negative rho (up, down):  1.018E-04 0.000E+00
          total   stress  (Ry/bohr**3)                   (kbar)     P=        6.11
   0.00006450   0.00000000   0.00000000            9.49        0.00        0.00
   0.00000000   0.00006455   0.00000000            0.00        9.50        0.00
   0.00000000   0.00000000  -0.00000453            0.00        0.00       -0.67

     Energy error            =      4.6E-03 Ry
     Gradient error          =      3.8E-02 Ry/Bohr

     number of scf cycles    =   5
     number of bfgs steps    =   4

     energy             old  =    -161.2408801988 Ry
     energy             new  =    -161.2454549311 Ry

     CASE: energy            _new < energy            _old

     new trust radius        =       0.0432543050 bohr
     new conv_thr            =       0.0000000384 Ry


ATOMIC_POSITIONS (angstrom)
Nb               0.0000000000        0.0000029792       -0.1634127575
S                1.6700000000        0.9641575864        1.4120092874
S                1.6700000000        0.9641610879       -1.7475870977
H                0.0000000000        0.0000113113        1.5989905678



     Writing config-only to output data dir ./tmp/candidate_NbS2_H_nbtop.save/ :
     XML data file
     NEW-OLD atomic charge density approx. for the potential

     negative rho (up, down):  1.024E-04 0.000E+00

     total cpu time spent up to now is      130.9 secs

     per-process dynamical memory:   110.0 Mb

     Self-consistent Calculation

     iteration #  1     ecut=    35.00 Ry     beta= 0.35
     Davidson diagonalization with overlap
     ethr =  1.00E-06,  avg # of iterations =  7.9

     negative rho (up, down):  1.023E-04 0.000E+00

     total cpu time spent up to now is      133.3 secs

     total energy              =    -161.24667164 Ry
     estimated scf accuracy    <       0.00016080 Ry

     iteration #  2     ecut=    35.00 Ry     beta= 0.35
     Davidson diagonalization with overlap
     ethr =  6.18E-07,  avg # of iterations =  3.3

     negative rho (up, down):  1.028E-04 0.000E+00

     total cpu time spent up to now is      135.1 secs

     total energy              =    -161.24664326 Ry
     estimated scf accuracy    <       0.00049828 Ry

     iteration #  3     ecut=    35.00 Ry     beta= 0.35
     Davidson diagonalization with overlap
     ethr =  6.18E-07,  avg # of iterations =  2.6

     negative rho (up, down):  1.022E-04 0.000E+00

     total cpu time spent up to now is      136.8 secs

     total energy              =    -161.24671137 Ry
     estimated scf accuracy    <       0.00002742 Ry

     iteration #  4     ecut=    35.00 Ry     beta= 0.35
     Davidson diagonalization with overlap
     ethr =  1.05E-07,  avg # of iterations =  2.0

     negative rho (up, down):  1.022E-04 0.000E+00

     total cpu time spent up to now is      138.7 secs

     total energy              =    -161.24671338 Ry
     estimated scf accuracy    <       0.00000393 Ry

     iteration #  5     ecut=    35.00 Ry     beta= 0.35
     Davidson diagonalization with overlap
     ethr =  1.51E-08,  avg # of iterations =  2.1

     negative rho (up, down):  1.022E-04 0.000E+00

     total cpu time spent up to now is      140.6 secs

     total energy              =    -161.24671392 Ry
     estimated scf accuracy    <       0.00000086 Ry

     iteration #  6     ecut=    35.00 Ry     beta= 0.35
     Davidson diagonalization with overlap
     ethr =  3.32E-09,  avg # of iterations =  2.4

     negative rho (up, down):  1.022E-04 0.000E+00

     total cpu time spent up to now is      142.5 secs

     total energy              =    -161.24671396 Ry
     estimated scf accuracy    <       0.00000035 Ry

     iteration #  7     ecut=    35.00 Ry     beta= 0.35
     Davidson diagonalization with overlap
     ethr =  1.36E-09,  avg # of iterations =  3.0

     negative rho (up, down):  1.022E-04 0.000E+00

     total cpu time spent up to now is      144.3 secs

     End of self-consistent calculation

          k = 0.0000 0.0000 0.0000 (  4067 PWs)   bands (ev):

   -60.4128 -36.6783 -36.3575 -36.3574 -20.1868 -18.1214 -11.3741  -8.2547
    -8.2546  -7.4653  -7.1153  -7.1152  -6.7498  -3.0189  -3.0188  -2.6906
    -2.6892

          k = 0.0000 0.2887 0.0000 (  4106 PWs)   bands (ev):

   -60.3953 -36.6369 -36.5467 -36.3999 -19.4843 -17.7632 -11.6953  -9.8752
    -8.8443  -8.4822  -7.3373  -7.2572  -6.6076  -3.3483  -3.0612  -2.9365
    -1.7789

          k = 0.0000-0.5774 0.0000 (  4108 PWs)   bands (ev):

   -60.3776 -36.7295 -36.5942 -36.4419 -18.5596 -17.3161 -13.3332 -10.2580
    -9.4546  -9.0052  -7.6149  -6.9698  -6.5264  -3.2937  -2.6079  -2.2923
    -1.1670

          k = 0.2500 0.1443 0.0000 (  4106 PWs)   bands (ev):

   -60.3953 -36.6369 -36.5467 -36.3999 -19.4843 -17.7632 -11.6953  -9.8752
    -8.8443  -8.4821  -7.3373  -7.2571  -6.6076  -3.3483  -3.0612  -2.9365
    -1.7789

          k = 0.2500 0.4330 0.0000 (  4102 PWs)   bands (ev):

   -60.3775 -36.6613 -36.5945 -36.5122 -18.5825 -17.3092 -12.9268 -10.4389
    -9.5288  -9.2092  -8.1987  -7.2611  -5.9671  -3.4397  -2.3385  -2.0501
    -1.1612

          k =-0.5000-0.2887 0.0000 (  4108 PWs)   bands (ev):

   -60.3776 -36.7295 -36.5942 -36.4419 -18.5596 -17.3161 -13.3333 -10.2580
    -9.4546  -9.0051  -7.6150  -6.9697  -6.5265  -3.2936  -2.6079  -2.2923
    -1.1670

          k =-0.5000 0.0000 0.0000 (  4102 PWs)   bands (ev):

   -60.3775 -36.6612 -36.5945 -36.5122 -18.5825 -17.3092 -12.9268 -10.4388
    -9.5287  -9.2092  -8.1987  -7.2611  -5.9670  -3.4398  -2.3385  -2.0501
    -1.1612

     the Fermi energy is    -4.6946 ev

!    total energy              =    -161.24671399 Ry
     estimated scf accuracy    <       0.00000002 Ry
     smearing contrib. (-TS)   =       0.00000000 Ry
     internal energy E=F+TS    =    -161.24671399 Ry

     The total energy is F=E-TS. E is the sum of the following terms:
     one-electron contribution =   -1457.87400759 Ry
     hartree contribution      =     725.08890482 Ry
     xc contribution           =     -29.52820877 Ry
     ewald contribution        =     601.06659754 Ry

     convergence has been achieved in   7 iterations

     negative rho (up, down):  1.022E-04 0.000E+00

     Forces acting on atoms (cartesian axes, Ry/au):

     atom    1 type  2   force =     0.00000000    0.00000027   -0.03057018
     atom    2 type  3   force =     0.00000000    0.00000003    0.00136960
     atom    3 type  3   force =     0.00000000   -0.00000014    0.01281081
     atom    4 type  1   force =     0.00000000   -0.00000016    0.01638977

     Total force =     0.037002     Total SCF correction =     0.001098


     Computing stress (Cartesian axis) and pressure


     negative rho (up, down):  1.022E-04 0.000E+00
          total   stress  (Ry/bohr**3)                   (kbar)     P=        5.70
   0.00006803   0.00000000   0.00000000           10.01        0.00        0.00
   0.00000000   0.00006808   0.00000000            0.00       10.02        0.00
   0.00000000   0.00000000  -0.00001990            0.00        0.00       -2.93

     Energy error            =      1.3E-03 Ry
     Gradient error          =      3.1E-02 Ry/Bohr

     number of scf cycles    =   6
     number of bfgs steps    =   5

     energy             old  =    -161.2454549311 Ry
     energy             new  =    -161.2467139906 Ry

     CASE: energy            _new < energy            _old

     new trust radius        =       0.0396376577 bohr
     new conv_thr            =       0.0000000126 Ry


ATOMIC_POSITIONS (angstrom)
Nb               0.0000000000        0.0000031674       -0.1775882399
S                1.6700000000        0.9641575296        1.4012545692
S                1.6700000000        0.9641609624       -1.7436322422
H                0.0000000000        0.0000113054        1.6199659129



     Writing config-only to output data dir ./tmp/candidate_NbS2_H_nbtop.save/ :
     XML data file
     NEW-OLD atomic charge density approx. for the potential

     negative rho (up, down):  1.060E-04 0.000E+00

     total cpu time spent up to now is      151.1 secs

     per-process dynamical memory:   110.0 Mb

     Self-consistent Calculation

     iteration #  1     ecut=    35.00 Ry     beta= 0.35
     Davidson diagonalization with overlap
     ethr =  1.00E-06,  avg # of iterations = 10.0

     negative rho (up, down):  1.046E-04 0.000E+00

     total cpu time spent up to now is      153.5 secs

     total energy              =    -161.24754333 Ry
     estimated scf accuracy    <       0.00030471 Ry

     iteration #  2     ecut=    35.00 Ry     beta= 0.35
     Davidson diagonalization with overlap
     ethr =  1.17E-06,  avg # of iterations =  3.3

     negative rho (up, down):  1.045E-04 0.000E+00

     total cpu time spent up to now is      155.4 secs

     total energy              =    -161.24748496 Ry
     estimated scf accuracy    <       0.00103004 Ry

     iteration #  3     ecut=    35.00 Ry     beta= 0.35
     Davidson diagonalization with overlap
     ethr =  1.17E-06,  avg # of iterations =  2.9

     negative rho (up, down):  1.035E-04 0.000E+00

     total cpu time spent up to now is      157.3 secs

     total energy              =    -161.24762457 Ry
     estimated scf accuracy    <       0.00004614 Ry

     iteration #  4     ecut=    35.00 Ry     beta= 0.35
     Davidson diagonalization with overlap
     ethr =  1.77E-07,  avg # of iterations =  2.0

     negative rho (up, down):  1.033E-04 0.000E+00

     total cpu time spent up to now is      158.9 secs

     total energy              =    -161.24762891 Ry
     estimated scf accuracy    <       0.00000641 Ry

     iteration #  5     ecut=    35.00 Ry     beta= 0.35
     Davidson diagonalization with overlap
     ethr =  2.46E-08,  avg # of iterations =  2.4

     negative rho (up, down):  1.033E-04 0.000E+00

     total cpu time spent up to now is      160.7 secs

     total energy              =    -161.24762964 Ry
     estimated scf accuracy    <       0.00000125 Ry

     iteration #  6     ecut=    35.00 Ry     beta= 0.35
     Davidson diagonalization with overlap
     ethr =  4.80E-09,  avg # of iterations =  2.7

     negative rho (up, down):  1.032E-04 0.000E+00

     total cpu time spent up to now is      162.6 secs

     total energy              =    -161.24762976 Ry
     estimated scf accuracy    <       0.00000074 Ry

     iteration #  7     ecut=    35.00 Ry     beta= 0.35
     Davidson diagonalization with overlap
     ethr =  2.86E-09,  avg # of iterations =  2.0

     negative rho (up, down):  1.031E-04 0.000E+00

     total cpu time spent up to now is      164.3 secs

     total energy              =    -161.24762988 Ry
     estimated scf accuracy    <       0.00000004 Ry

     iteration #  8     ecut=    35.00 Ry     beta= 0.35
     Davidson diagonalization with overlap
     ethr =  1.38E-10,  avg # of iterations =  4.7

     negative rho (up, down):  1.030E-04 0.000E+00

     total cpu time spent up to now is      166.2 secs

     End of self-consistent calculation

          k = 0.0000 0.0000 0.0000 (  4067 PWs)   bands (ev):

   -60.4026 -36.6630 -36.3467 -36.3466 -20.1796 -18.1322 -11.3781  -8.2445
    -8.2444  -7.4689  -7.1598  -7.1597  -6.6052  -3.0336  -3.0335  -2.9003
    -2.6273

          k = 0.0000 0.2887 0.0000 (  4106 PWs)   bands (ev):

   -60.3851 -36.6213 -36.5368 -36.3892 -19.4739 -17.7785 -11.6741  -9.8705
    -8.8813  -8.4604  -7.3102  -7.3099  -6.5434  -3.3029  -3.0496  -2.9523
    -1.7416

          k = 0.0000-0.5774 0.0000 (  4108 PWs)   bands (ev):

   -60.3674 -36.7203 -36.5785 -36.4314 -18.5447 -17.3405 -13.2999 -10.2848
    -9.4463  -8.9944  -7.5969  -7.0044  -6.4715  -3.3018  -2.6009  -2.3125
    -1.1309

          k = 0.2500 0.1443 0.0000 (  4106 PWs)   bands (ev):

   -60.3851 -36.6213 -36.5368 -36.3892 -19.4739 -17.7785 -11.6742  -9.8705
    -8.8813  -8.4603  -7.3101  -7.3100  -6.5434  -3.3029  -3.0495  -2.9523
    -1.7416

          k = 0.2500 0.4330 0.0000 (  4102 PWs)   bands (ev):

   -60.3672 -36.6518 -36.5788 -36.5019 -18.5678 -17.3328 -12.8908 -10.4262
    -9.5462  -9.2237  -8.2110  -7.2458  -5.9429  -3.3750  -2.3479  -2.0098
    -1.2048

          k =-0.5000-0.2887 0.0000 (  4108 PWs)   bands (ev):

   -60.3674 -36.7203 -36.5785 -36.4313 -18.5448 -17.3405 -13.3000 -10.2848
    -9.4463  -8.9943  -7.5969  -7.0042  -6.4715  -3.3017  -2.6009  -2.3125
    -1.1308

          k =-0.5000 0.0000 0.0000 (  4102 PWs)   bands (ev):

   -60.3672 -36.6518 -36.5788 -36.5019 -18.5678 -17.3329 -12.8908 -10.4262
    -9.5462  -9.2237  -8.2110  -7.2458  -5.9428  -3.3750  -2.3479  -2.0098
    -1.2048

     the Fermi energy is    -4.6030 ev

!    total energy              =    -161.24762988 Ry
     estimated scf accuracy    <       0.00000001 Ry
     smearing contrib. (-TS)   =       0.00000000 Ry
     internal energy E=F+TS    =    -161.24762988 Ry

     The total energy is F=E-TS. E is the sum of the following terms:
     one-electron contribution =   -1459.15901676 Ry
     hartree contribution      =     725.73584995 Ry
     xc contribution           =     -29.52731316 Ry
     ewald contribution        =     601.70285008 Ry

     convergence has been achieved in   8 iterations

     negative rho (up, down):  1.030E-04 0.000E+00

     Forces acting on atoms (cartesian axes, Ry/au):

     atom    1 type  2   force =     0.00000000    0.00000039   -0.00982179
     atom    2 type  3   force =     0.00000000    0.00000043    0.00374101
     atom    3 type  3   force =     0.00000000   -0.00000055    0.00332996
     atom    4 type  1   force =     0.00000000   -0.00000027    0.00275082

     Total force =     0.011363     Total SCF correction =     0.000748


     Computing stress (Cartesian axis) and pressure


     negative rho (up, down):  1.030E-04 0.000E+00
          total   stress  (Ry/bohr**3)                   (kbar)     P=        5.80
   0.00007303   0.00000000   0.00000000           10.74        0.00        0.00
   0.00000000   0.00007308   0.00000000            0.00       10.75        0.00
   0.00000000   0.00000000  -0.00002776            0.00        0.00       -4.08

     Energy error            =      9.2E-04 Ry
     Gradient error          =      9.8E-03 Ry/Bohr

     number of scf cycles    =   7
     number of bfgs steps    =   6

     energy             old  =    -161.2467139906 Ry
     energy             new  =    -161.2476298839 Ry

     CASE: energy            _new < energy            _old

     new trust radius        =       0.0106246370 bohr
     new conv_thr            =       0.0000000092 Ry


ATOMIC_POSITIONS (angstrom)
Nb               0.0000000000        0.0000034847       -0.1832105557
S                1.6700000000        0.9641577965        1.4020582282
S                1.6700000000        0.9641605552       -1.7410816570
H                0.0000000000        0.0000111283        1.6222339844



     Writing config-only to output data dir ./tmp/candidate_NbS2_H_nbtop.save/ :
     XML data file
     NEW-OLD atomic charge density approx. for the potential

     negative rho (up, down):  1.036E-04 0.000E+00

     total cpu time spent up to now is      172.9 secs

     per-process dynamical memory:   110.0 Mb

     Self-consistent Calculation

     iteration #  1     ecut=    35.00 Ry     beta= 0.35
     Davidson diagonalization with overlap
     ethr =  1.00E-06,  avg # of iterations =  4.0

     Threshold (ethr) on eigenvalues was too large:
     Diagonalizing with lowered threshold

     Davidson diagonalization with overlap
     ethr =  6.20E-08,  avg # of iterations =  3.7

     negative rho (up, down):  1.034E-04 0.000E+00

     total cpu time spent up to now is      176.1 secs

     total energy              =    -161.24770318 Ry
     estimated scf accuracy    <       0.00002136 Ry

     iteration #  2     ecut=    35.00 Ry     beta= 0.35
     Davidson diagonalization with overlap
     ethr =  8.21E-08,  avg # of iterations =  3.3

     negative rho (up, down):  1.033E-04 0.000E+00

     total cpu time spent up to now is      177.9 secs

     total energy              =    -161.24769939 Ry
     estimated scf accuracy    <       0.00005655 Ry

     iteration #  3     ecut=    35.00 Ry     beta= 0.35
     Davidson diagonalization with overlap
     ethr =  8.21E-08,  avg # of iterations =  2.7

     negative rho (up, down):  1.032E-04 0.000E+00

     total cpu time spent up to now is      179.6 secs

     total energy              =    -161.24770757 Ry
     estimated scf accuracy    <       0.00000503 Ry

     iteration #  4     ecut=    35.00 Ry     beta= 0.35
     Davidson diagonalization with overlap
     ethr =  1.93E-08,  avg # of iterations =  1.9

     negative rho (up, down):  1.032E-04 0.000E+00

     total cpu time spent up to now is      181.3 secs

     total energy              =    -161.24770808 Ry
     estimated scf accuracy    <       0.00000072 Ry

     iteration #  5     ecut=    35.00 Ry     beta= 0.35
     Davidson diagonalization with overlap
     ethr =  2.77E-09,  avg # of iterations =  2.0

     negative rho (up, down):  1.032E-04 0.000E+00

     total cpu time spent up to now is      183.1 secs

     total energy              =    -161.24770817 Ry
     estimated scf accuracy    <       0.00000009 Ry

     iteration #  6     ecut=    35.00 Ry     beta= 0.35
     Davidson diagonalization with overlap
     ethr =  3.47E-10,  avg # of iterations =  3.4

     negative rho (up, down):  1.032E-04 0.000E+00

     total cpu time spent up to now is      184.8 secs

     total energy              =    -161.24770818 Ry
     estimated scf accuracy    <       0.00000007 Ry

     iteration #  7     ecut=    35.00 Ry     beta= 0.35
     Davidson diagonalization with overlap
     ethr =  2.66E-10,  avg # of iterations =  1.6

     negative rho (up, down):  1.032E-04 0.000E+00

     total cpu time spent up to now is      186.5 secs

     End of self-consistent calculation

          k = 0.0000 0.0000 0.0000 (  4067 PWs)   bands (ev):

   -60.4013 -36.6610 -36.3446 -36.3446 -20.1755 -18.1418 -11.3668  -8.2273
    -8.2271  -7.4729  -7.1810  -7.1809  -6.5892  -3.0532  -3.0532  -2.9061
    -2.6007

          k = 0.0000 0.2887 0.0000 (  4106 PWs)   bands (ev):

   -60.3838 -36.6193 -36.5349 -36.3872 -19.4677 -17.7896 -11.6579  -9.8675
    -8.9006  -8.4408  -7.3350  -7.3172  -6.5179  -3.3034  -3.0531  -2.9499
    -1.7304

          k = 0.0000-0.5774 0.0000 (  4108 PWs)   bands (ev):

   -60.3660 -36.7184 -36.5765 -36.4294 -18.5339 -17.3550 -13.2923 -10.2963
    -9.4396  -8.9828  -7.6001  -7.0222  -6.4504  -3.3070  -2.5991  -2.3248
    -1.1262

          k = 0.2500 0.1443 0.0000 (  4106 PWs)   bands (ev):

   -60.3838 -36.6193 -36.5349 -36.3872 -19.4677 -17.7896 -11.6579  -9.8676
    -8.9006  -8.4407  -7.3349  -7.3172  -6.5179  -3.3034  -3.0530  -2.9498
    -1.7304

          k = 0.2500 0.4330 0.0000 (  4102 PWs)   bands (ev):

   -60.3659 -36.6499 -36.5768 -36.4999 -18.5573 -17.3472 -12.8817 -10.4160
    -9.5540  -9.2290  -8.2208  -7.2465  -5.9313  -3.3601  -2.3564  -1.9946
    -1.2219

          k =-0.5000-0.2887 0.0000 (  4108 PWs)   bands (ev):

   -60.3660 -36.7184 -36.5765 -36.4293 -18.5339 -17.3551 -13.2924 -10.2962
    -9.4396  -8.9827  -7.6002  -7.0221  -6.4504  -3.3069  -2.5991  -2.3248
    -1.1262

          k =-0.5000 0.0000 0.0000 (  4102 PWs)   bands (ev):

   -60.3659 -36.6499 -36.5768 -36.4999 -18.5573 -17.3472 -12.8817 -10.4160
    -9.5540  -9.2290  -8.2208  -7.2465  -5.9312  -3.3601  -2.3565  -1.9946
    -1.2219

     the Fermi energy is    -4.5987 ev

!    total energy              =    -161.24770819 Ry
     estimated scf accuracy    <          1.7E-09 Ry
     smearing contrib. (-TS)   =       0.00000000 Ry
     internal energy E=F+TS    =    -161.24770819 Ry

     The total energy is F=E-TS. E is the sum of the following terms:
     one-electron contribution =   -1459.25976220 Ry
     hartree contribution      =     725.78769435 Ry
     xc contribution           =     -29.52659172 Ry
     ewald contribution        =     601.75095138 Ry

     convergence has been achieved in   7 iterations

     negative rho (up, down):  1.032E-04 0.000E+00

     Forces acting on atoms (cartesian axes, Ry/au):

     atom    1 type  2   force =     0.00000000   -0.00000062   -0.00173168
     atom    2 type  3   force =     0.00000000    0.00000091    0.00206341
     atom    3 type  3   force =     0.00000000   -0.00000019   -0.00066135
     atom    4 type  1   force =     0.00000000   -0.00000009    0.00032962

     Total force =     0.002793     Total SCF correction =     0.000075


     Computing stress (Cartesian axis) and pressure


     negative rho (up, down):  1.032E-04 0.000E+00
          total   stress  (Ry/bohr**3)                   (kbar)     P=        5.76
   0.00007308   0.00000000   0.00000000           10.75        0.00        0.00
   0.00000000   0.00007313   0.00000000            0.00       10.76        0.00
   0.00000000   0.00000000  -0.00002880            0.00        0.00       -4.24

     Energy error            =      7.8E-05 Ry
     Gradient error          =      2.1E-03 Ry/Bohr

     number of scf cycles    =   8
     number of bfgs steps    =   7

     energy             old  =    -161.2476298839 Ry
     energy             new  =    -161.2477081940 Ry

     CASE: energy            _new < energy            _old

     new trust radius        =       0.0027493707 bohr
     new conv_thr            =       0.0000000010 Ry


ATOMIC_POSITIONS (angstrom)
Nb               0.0000000000        0.0000031271       -0.1843173475
S                1.6700000000        0.9641583712        1.4035131324
S                1.6700000000        0.9641604079       -1.7411433730
H                0.0000000000        0.0000110586        1.6219475881



     Writing config-only to output data dir ./tmp/candidate_NbS2_H_nbtop.save/ :
     XML data file
     NEW-OLD atomic charge density approx. for the potential

     negative rho (up, down):  1.031E-04 0.000E+00

     total cpu time spent up to now is      193.1 secs

     per-process dynamical memory:   110.0 Mb

     Self-consistent Calculation

     iteration #  1     ecut=    35.00 Ry     beta= 0.35
     Davidson diagonalization with overlap
     ethr =  1.00E-06,  avg # of iterations =  2.4

     Threshold (ethr) on eigenvalues was too large:
     Diagonalizing with lowered threshold

     Davidson diagonalization with overlap
     ethr =  3.73E-09,  avg # of iterations =  4.6

     negative rho (up, down):  1.031E-04 0.000E+00

     total cpu time spent up to now is      196.2 secs

     total energy              =    -161.24771409 Ry
     estimated scf accuracy    <       0.00000129 Ry

     iteration #  2     ecut=    35.00 Ry     beta= 0.35
     Davidson diagonalization with overlap
     ethr =  4.95E-09,  avg # of iterations =  3.4

     negative rho (up, down):  1.031E-04 0.000E+00

     total cpu time spent up to now is      198.0 secs

     total energy              =    -161.24771387 Ry
     estimated scf accuracy    <       0.00000477 Ry

     iteration #  3     ecut=    35.00 Ry     beta= 0.35
     Davidson diagonalization with overlap
     ethr =  4.95E-09,  avg # of iterations =  2.7

     negative rho (up, down):  1.031E-04 0.000E+00

     total cpu time spent up to now is      199.6 secs

     total energy              =    -161.24771449 Ry
     estimated scf accuracy    <       0.00000019 Ry

     iteration #  4     ecut=    35.00 Ry     beta= 0.35
     Davidson diagonalization with overlap
     ethr =  7.19E-10,  avg # of iterations =  2.0

     negative rho (up, down):  1.031E-04 0.000E+00

     total cpu time spent up to now is      201.3 secs

     total energy              =    -161.24771451 Ry
     estimated scf accuracy    <       0.00000005 Ry

     iteration #  5     ecut=    35.00 Ry     beta= 0.35
     Davidson diagonalization with overlap
     ethr =  2.07E-10,  avg # of iterations =  1.3

     negative rho (up, down):  1.031E-04 0.000E+00

     total cpu time spent up to now is      203.0 secs

     total energy              =    -161.24771451 Ry
     estimated scf accuracy    <          4.8E-09 Ry

     iteration #  6     ecut=    35.00 Ry     beta= 0.35
     Davidson diagonalization with overlap
     ethr =  1.86E-11,  avg # of iterations =  4.0

     negative rho (up, down):  1.031E-04 0.000E+00

     total cpu time spent up to now is      204.8 secs

     total energy              =    -161.24771451 Ry
     estimated scf accuracy    <          2.8E-09 Ry

     iteration #  7     ecut=    35.00 Ry     beta= 0.35
     Davidson diagonalization with overlap
     ethr =  1.07E-11,  avg # of iterations =  2.4

     negative rho (up, down):  1.031E-04 0.000E+00

     total cpu time spent up to now is      206.5 secs

     End of self-consistent calculation

          k = 0.0000 0.0000 0.0000 (  4067 PWs)   bands (ev):

   -60.4013 -36.6606 -36.3441 -36.3441 -20.1735 -18.1435 -11.3601  -8.2188
    -8.2187  -7.4747  -7.1825  -7.1824  -6.5934  -3.0593  -3.0593  -2.9070
    -2.5961

          k = 0.0000 0.2887 0.0000 (  4106 PWs)   bands (ev):

   -60.3838 -36.6190 -36.5342 -36.3867 -19.4653 -17.7911 -11.6515  -9.8656
    -8.9027  -8.4333  -7.3369  -7.3215  -6.5126  -3.3068  -3.0553  -2.9487
    -1.7297

          k = 0.0000-0.5774 0.0000 (  4108 PWs)   bands (ev):

   -60.3660 -36.7177 -36.5762 -36.4288 -18.5300 -17.3566 -13.2914 -10.2966
    -9.4362  -8.9772  -7.6029  -7.0240  -6.4458  -3.3078  -2.5978  -2.3280
    -1.1287

          k = 0.2500 0.1443 0.0000 (  4106 PWs)   bands (ev):

   -60.3838 -36.6190 -36.5342 -36.3866 -19.4653 -17.7911 -11.6515  -9.8656
    -8.9028  -8.4331  -7.3368  -7.3216  -6.5126  -3.3068  -3.0552  -2.9487
    -1.7297

          k = 0.2500 0.4330 0.0000 (  4102 PWs)   bands (ev):

   -60.3659 -36.6492 -36.5766 -36.4993 -18.5535 -17.3488 -12.8802 -10.4113
    -9.5538  -9.2286  -8.2221  -7.2482  -5.9269  -3.3585  -2.3587  -1.9922
    -1.2257

          k =-0.5000-0.2887 0.0000 (  4108 PWs)   bands (ev):

   -60.3660 -36.7177 -36.5762 -36.4288 -18.5300 -17.3567 -13.2915 -10.2966
    -9.4362  -8.9771  -7.6030  -7.0239  -6.4458  -3.3077  -2.5978  -2.3280
    -1.1287

          k =-0.5000 0.0000 0.0000 (  4102 PWs)   bands (ev):

   -60.3659 -36.6492 -36.5766 -36.4993 -18.5536 -17.3488 -12.8802 -10.4113
    -9.5538  -9.2286  -8.2221  -7.2483  -5.9269  -3.3585  -2.3587  -1.9922
    -1.2256

     the Fermi energy is    -4.6010 ev

!    total energy              =    -161.24771452 Ry
     estimated scf accuracy    <          6.2E-10 Ry
     smearing contrib. (-TS)   =       0.00000000 Ry
     internal energy E=F+TS    =    -161.24771452 Ry

     The total energy is F=E-TS. E is the sum of the following terms:
     one-electron contribution =   -1459.02424908 Ry
     hartree contribution      =     725.66967917 Ry
     xc contribution           =     -29.52551286 Ry
     ewald contribution        =     601.63236825 Ry

     convergence has been achieved in   7 iterations

     negative rho (up, down):  1.031E-04 0.000E+00

     Forces acting on atoms (cartesian axes, Ry/au):

     atom    1 type  2   force =     0.00000000    0.00000023   -0.00026871
     atom    2 type  3   force =     0.00000000    0.00000033    0.00106032
     atom    3 type  3   force =     0.00000000   -0.00000023   -0.00102509
     atom    4 type  1   force =     0.00000000   -0.00000033    0.00023348

     Total force =     0.001517     Total SCF correction =     0.000116


     Computing stress (Cartesian axis) and pressure


     negative rho (up, down):  1.031E-04 0.000E+00
          total   stress  (Ry/bohr**3)                   (kbar)     P=        5.58
   0.00007223   0.00000000   0.00000000           10.63        0.00        0.00
   0.00000000   0.00007228   0.00000000            0.00       10.63        0.00
   0.00000000   0.00000000  -0.00003069            0.00        0.00       -4.51

     Energy error            =      6.3E-06 Ry
     Gradient error          =      1.1E-03 Ry/Bohr

     number of scf cycles    =   9
     number of bfgs steps    =   8

     energy             old  =    -161.2477081940 Ry
     energy             new  =    -161.2477145168 Ry

     CASE: energy            _new < energy            _old

     new trust radius        =       0.0025637429 bohr
     new conv_thr            =       0.0000000010 Ry


ATOMIC_POSITIONS (angstrom)
Nb               0.0000000000        0.0000032305       -0.1848478125
S                1.6700000000        0.9641588150        1.4048698066
S                1.6700000000        0.9641601629       -1.7419693037
H                0.0000000000        0.0000107564        1.6219473096



     Writing config-only to output data dir ./tmp/candidate_NbS2_H_nbtop.save/ :
     XML data file
     NEW-OLD atomic charge density approx. for the potential

     negative rho (up, down):  1.030E-04 0.000E+00

     total cpu time spent up to now is      213.3 secs

     per-process dynamical memory:   110.0 Mb

     Self-consistent Calculation

     iteration #  1     ecut=    35.00 Ry     beta= 0.35
     Davidson diagonalization with overlap
     ethr =  1.00E-06,  avg # of iterations =  2.0

     Threshold (ethr) on eigenvalues was too large:
     Diagonalizing with lowered threshold

     Davidson diagonalization with overlap
     ethr =  3.24E-09,  avg # of iterations =  4.0

     negative rho (up, down):  1.030E-04 0.000E+00

     total cpu time spent up to now is      216.7 secs

     total energy              =    -161.24771737 Ry
     estimated scf accuracy    <       0.00000055 Ry

     iteration #  2     ecut=    35.00 Ry     beta= 0.35
     Davidson diagonalization with overlap
     ethr =  2.12E-09,  avg # of iterations =  2.6

     negative rho (up, down):  1.030E-04 0.000E+00

     total cpu time spent up to now is      218.7 secs

     total energy              =    -161.24771733 Ry
     estimated scf accuracy    <       0.00000094 Ry

     iteration #  3     ecut=    35.00 Ry     beta= 0.35
     Davidson diagonalization with overlap
     ethr =  2.12E-09,  avg # of iterations =  2.4

     negative rho (up, down):  1.031E-04 0.000E+00

     total cpu time spent up to now is      220.7 secs

     total energy              =    -161.24771747 Ry
     estimated scf accuracy    <       0.00000023 Ry

     iteration #  4     ecut=    35.00 Ry     beta= 0.35
     Davidson diagonalization with overlap
     ethr =  8.89E-10,  avg # of iterations =  1.7

     negative rho (up, down):  1.031E-04 0.000E+00

     total cpu time spent up to now is      222.5 secs

     total energy              =    -161.24771750 Ry
     estimated scf accuracy    <       0.00000004 Ry

     iteration #  5     ecut=    35.00 Ry     beta= 0.35
     Davidson diagonalization with overlap
     ethr =  1.48E-10,  avg # of iterations =  2.3

     negative rho (up, down):  1.031E-04 0.000E+00

     total cpu time spent up to now is      224.5 secs

     total energy              =    -161.24771750 Ry
     estimated scf accuracy    <          3.8E-09 Ry

     iteration #  6     ecut=    35.00 Ry     beta= 0.35
     Davidson diagonalization with overlap
     ethr =  1.46E-11,  avg # of iterations =  2.0

     negative rho (up, down):  1.031E-04 0.000E+00

     total cpu time spent up to now is      226.8 secs

     End of self-consistent calculation

          k = 0.0000 0.0000 0.0000 (  4067 PWs)   bands (ev):

   -60.4019 -36.6608 -36.3441 -36.3441 -20.1718 -18.1436 -11.3544  -8.2116
    -8.2115  -7.4766  -7.1802  -7.1801  -6.5976  -3.0631  -3.0631  -2.9097
    -2.5953

          k = 0.0000 0.2887 0.0000 (  4106 PWs)   bands (ev):

   -60.3844 -36.6192 -36.5341 -36.3867 -19.4635 -17.7905 -11.6466  -9.8636
    -8.9016  -8.4276  -7.3343  -7.3246  -6.5101  -3.3103  -3.0573  -2.9492
    -1.7310

          k = 0.0000-0.5774 0.0000 (  4108 PWs)   bands (ev):

   -60.3667 -36.7174 -36.5765 -36.4288 -18.5273 -17.3554 -13.2911 -10.2949
    -9.4330  -8.9725  -7.6055  -7.0227  -6.4434  -3.3086  -2.5966  -2.3303
    -1.1329

          k = 0.2500 0.1443 0.0000 (  4106 PWs)   bands (ev):

   -60.3844 -36.6192 -36.5341 -36.3867 -19.4635 -17.7905 -11.6466  -9.8636
    -8.9016  -8.4275  -7.3342  -7.3247  -6.5101  -3.3103  -3.0573  -2.9491
    -1.7310

          k = 0.2500 0.4330 0.0000 (  4102 PWs)   bands (ev):

   -60.3666 -36.6489 -36.5769 -36.4992 -18.5510 -17.3477 -12.8794 -10.4073
    -9.5518  -9.2272  -8.2214  -7.2500  -5.9234  -3.3581  -2.3605  -1.9922
    -1.2290

          k =-0.5000-0.2887 0.0000 (  4108 PWs)   bands (ev):

   -60.3667 -36.7174 -36.5765 -36.4288 -18.5274 -17.3555 -13.2912 -10.2949
    -9.4330  -8.9723  -7.6055  -7.0226  -6.4434  -3.3086  -2.5966  -2.3303
    -1.1328

          k =-0.5000 0.0000 0.0000 (  4102 PWs)   bands (ev):

   -60.3666 -36.6489 -36.5769 -36.4992 -18.5510 -17.3477 -12.8794 -10.4073
    -9.5518  -9.2272  -8.2214  -7.2500  -5.9234  -3.3581  -2.3605  -1.9922
    -1.2290

     the Fermi energy is    -4.6048 ev

!    total energy              =    -161.24771750 Ry
     estimated scf accuracy    <          7.0E-10 Ry
     smearing contrib. (-TS)   =       0.00000000 Ry
     internal energy E=F+TS    =    -161.24771750 Ry

     The total energy is F=E-TS. E is the sum of the following terms:
     one-electron contribution =   -1458.68989820 Ry
     hartree contribution      =     725.50323255 Ry
     xc contribution           =     -29.52405268 Ry
     ewald contribution        =     601.46300082 Ry

     convergence has been achieved in   6 iterations

     negative rho (up, down):  1.031E-04 0.000E+00

     Forces acting on atoms (cartesian axes, Ry/au):

     atom    1 type  2   force =     0.00000000    0.00000029    0.00028985
     atom    2 type  3   force =     0.00000000    0.00000047    0.00022756
     atom    3 type  3   force =     0.00000000   -0.00000051   -0.00069224
     atom    4 type  1   force =     0.00000000   -0.00000026    0.00017483

     Total force =     0.000803     Total SCF correction =     0.000108
     SCF correction compared to forces is large: reduce conv_thr to get better values


     Computing stress (Cartesian axis) and pressure


     negative rho (up, down):  1.031E-04 0.000E+00
          total   stress  (Ry/bohr**3)                   (kbar)     P=        5.30
   0.00007088   0.00000000   0.00000000           10.43        0.00        0.00
   0.00000000   0.00007093   0.00000000            0.00       10.43        0.00
   0.00000000   0.00000000  -0.00003380            0.00        0.00       -4.97

     Energy error            =      3.0E-06 Ry
     Gradient error          =      6.9E-04 Ry/Bohr

     bfgs converged in  10 scf cycles and   9 bfgs steps
     (criteria: energy <  1.0E-04 Ry, force <  1.0E-03 Ry/Bohr)

     End of BFGS Geometry Optimization

     Final energy             =    -161.2477174987 Ry

     File ./tmp/candidate_NbS2_H_nbtop.bfgs deleted, as requested
Begin final coordinates

ATOMIC_POSITIONS (angstrom)
Nb               0.0000000000        0.0000032305       -0.1848478125
S                1.6700000000        0.9641588150        1.4048698066
S                1.6700000000        0.9641601629       -1.7419693037
H                0.0000000000        0.0000107564        1.6219473096
End final coordinates



     Writing all to output data dir ./tmp/candidate_NbS2_H_nbtop.save/ :
     XML data file, charge density, pseudopotentials, collected wavefunctions

     init_run     :      2.11s CPU      2.51s WALL (       1 calls)
     electrons    :    127.42s CPU    162.98s WALL (      10 calls)
     update_pot   :      0.73s CPU      0.82s WALL (       9 calls)
     forces       :      6.53s CPU      8.68s WALL (      10 calls)
     stress       :     46.91s CPU     53.53s WALL (      10 calls)

     Called by init_run:
     wfcinit      :      0.37s CPU      0.38s WALL (       1 calls)
     potinit      :      0.33s CPU      0.35s WALL (       1 calls)
     hinit0       :      1.01s CPU      1.03s WALL (       1 calls)

     Called by electrons:
     c_bands      :     42.56s CPU     42.85s WALL (      86 calls)
     sum_band     :     46.32s CPU     65.26s WALL (      86 calls)
     v_of_rho     :      6.27s CPU      6.43s WALL (      93 calls)
     newd         :     35.43s CPU     53.66s WALL (      93 calls)
     mix_rho      :      0.62s CPU      0.62s WALL (      86 calls)

     Called by c_bands:
     init_us_2    :      2.13s CPU      2.17s WALL (    1351 calls)
     cegterg      :     38.21s CPU     38.45s WALL (     602 calls)

     Called by *egterg:
     cdiaghg      :      0.70s CPU      0.72s WALL (    2413 calls)
     h_psi        :     30.62s CPU     30.82s WALL (    2504 calls)
     s_psi        :      1.55s CPU      1.56s WALL (    2504 calls)
     g_psi        :      0.35s CPU      0.35s WALL (    1895 calls)

     Called by h_psi:
     h_psi:calbec :      1.99s CPU      2.02s WALL (    2504 calls)
     vloc_psi     :     26.75s CPU     26.91s WALL (    2504 calls)
                                        0.00s GPU  (    2504 calls)
     add_vuspsi   :      1.68s CPU      1.69s WALL (    2504 calls)

     General routines
     calbec       :      3.82s CPU      3.87s WALL (    4296 calls)
     fft          :      3.53s CPU      3.62s WALL (    1451 calls)
     ffts         :      0.34s CPU      0.34s WALL (     179 calls)
     fftw         :     26.98s CPU     27.15s WALL (   64926 calls)
     interpolate  :      0.54s CPU      0.54s WALL (      93 calls)

     Parallel routines

     PWSCF        :   3m 7.25s CPU   3m53.82s WALL


   This run was terminated on:  13: 8:15  10May2026            

=------------------------------------------------------------------------------=
   JOB DONE.
=------------------------------------------------------------------------------=
