
     Program PWSCF v.7.5 starts on 10May2026 at 13: 1: 4 

     This program is part of the open-source Quantum ESPRESSO suite
     for quantum simulation of materials; please cite
         "P. Giannozzi et al., J. Phys.:Condens. Matter 21 395502 (2009);
         "P. Giannozzi et al., J. Phys.:Condens. Matter 29 465901 (2017);
         "P. Giannozzi et al., J. Chem. Phys. 152 154105 (2020);
          URL http://www.quantum-espresso.org", 
     in publications or presentations arising from this work. More details at
     http://www.quantum-espresso.org/quote

     Parallel version (MPI & OpenMP), running on       1 processor cores
     Number of MPI processes:                 1
     Threads/MPI process:                     1

     MPI processes distributed on     1 nodes
     6993 MiB available memory on the printing compute node when the environment starts

     Reading input from candidate_NbS2/03_h_ads_relax.in

     Current dimensions of program PWSCF are:
     Max number of different atomic species (ntypx) = 10
     Max number of k-points (npk) =  40000
     Max angular momentum in pseudopotentials (lmaxx) =  4
     file Nb.pbe-spn-rrkjus_psl.1.0.0.UPF: wavefunction(s)  4S 4P renormalized
     Message from routine setup:
     using ibrav=0 with symmetry is DISCOURAGED, use correct ibrav instead

     Subspace diagonalization in iterative solution of the eigenvalue problem:
     a serial algorithm will be used


     G-vector sticks info
     --------------------
     sticks:   dense  smooth     PW     G-vecs:    dense   smooth      PW
     Sum         769     379    121                92797    32775    5495

     Using Slab Decomposition



     bravais-lattice index     =            0
     lattice parameter (alat)  =       6.3117  a.u.
     unit-cell volume          =    1173.5103 (a.u.)^3
     number of atoms/cell      =            4
     number of atomic types    =            3
     number of electrons       =        26.00
     number of Kohn-Sham states=           17
     kinetic-energy cutoff     =      35.0000  Ry
     charge density cutoff     =     280.0000  Ry
     scf convergence threshold =      1.0E-07
     mixing beta               =       0.3500
     number of iterations used =            8  plain     mixing
     energy convergence thresh.=      1.0E-04
     force convergence thresh. =      1.0E-03
     Exchange-correlation= PBE
                           (   1   4   3   4   0   0   0)
     nstep                     =           50


     celldm(1)=   6.311685  celldm(2)=   0.000000  celldm(3)=   0.000000
     celldm(4)=   0.000000  celldm(5)=   0.000000  celldm(6)=   0.000000

     crystal axes: (cart. coord. in units of alat)
               a(1) = (   1.000000   0.000000   0.000000 )  
               a(2) = (  -0.500000   0.866014   0.000000 )  
               a(3) = (   0.000000   0.000000   5.389222 )  

     reciprocal axes: (cart. coord. in units 2 pi/alat)
               b(1) = (  1.000000  0.577358 -0.000000 )  
               b(2) = (  0.000000  1.154716  0.000000 )  
               b(3) = (  0.000000 -0.000000  0.185556 )  


     PseudoPot. # 1 for H  read from file:
     ./pseudos/H.pbe-rrkjus_psl.1.0.0.UPF
     MD5 check sum: 3f4114867bd07edc7f1424d066fc1888
     Pseudo is Ultrasoft, Zval =  1.0
     Generated using &quot;atomic&quot; code by A. Dal Corso  v.6.3MaX
     Using radial grid of  929 points,  2 beta functions with: 
                l(1) =   0
                l(2) =   0
     Q(r) pseudized with 0 coefficients 


     PseudoPot. # 2 for Nb read from file:
     ./pseudos/Nb.pbe-spn-rrkjus_psl.1.0.0.UPF
     MD5 check sum: 6ee677a9f002bd3e3657f443f129faad
     Pseudo is Ultrasoft + core correction, Zval = 13.0
     Generated using &quot;atomic&quot; code by A. Dal Corso  v.6.2.2
     Using radial grid of 1227 points,  6 beta functions with: 
                l(1) =   0
                l(2) =   0
                l(3) =   1
                l(4) =   1
                l(5) =   2
                l(6) =   2
     Q(r) pseudized with 0 coefficients 


     PseudoPot. # 3 for S  read from file:
     ./pseudos/S.pbe-n-rrkjus_psl.1.0.0.UPF
     MD5 check sum: 9d0fe39aa2a799ea84730884c9b010f4
     Pseudo is Ultrasoft + core correction, Zval =  6.0
     Generated using &quot;atomic&quot; code by A. Dal Corso  v.6.3
     Using radial grid of 1151 points,  6 beta functions with: 
                l(1) =   0
                l(2) =   0
                l(3) =   1
                l(4) =   1
                l(5) =   2
                l(6) =   2
     Q(r) pseudized with 0 coefficients 


     atomic species   valence    mass     pseudopotential
     H                 1.00     1.00800     H ( 1.00)
     Nb               13.00    92.90600     Nb( 1.00)
     S                 6.00    32.06000     S ( 1.00)

      2 Sym. Ops. (no inversion) found



   Cartesian axes

     site n.     atom                  positions (alat units)
         1        Nb     tau(   1) = (   0.0000000   0.0000026   0.0000000  )
         2        S      tau(   2) = (   0.5000000   0.2886700   0.4698322  )
         3        S      tau(   3) = (   0.5000000   0.2886700  -0.4698322  )
         4        H      tau(   4) = (   0.5000000   0.2886700   0.7991735  )

     number of k points=     7  Methfessel-Paxton smearing, width (Ry)=  0.0200
                       cart. coord. in units 2pi/alat
        k(    1) = (   0.0000000   0.0000000   0.0000000), wk =   0.1250000
        k(    2) = (   0.0000000   0.2886790   0.0000000), wk =   0.2500000
        k(    3) = (   0.0000000  -0.5773579   0.0000000), wk =   0.1250000
        k(    4) = (   0.2500000   0.1443395   0.0000000), wk =   0.5000000
        k(    5) = (   0.2500000   0.4330184   0.0000000), wk =   0.5000000
        k(    6) = (  -0.5000000  -0.2886790   0.0000000), wk =   0.2500000
        k(    7) = (  -0.5000000   0.0000000   0.0000000), wk =   0.2500000

     Dense  grid:    92797 G-vectors     FFT dimensions: (  36,  36, 192)

     Smooth grid:    32775 G-vectors     FFT dimensions: (  24,  24, 135)

     Estimated max dynamical RAM per process >     361.54 MB
 ----2D----2D----2D----2D----2D----2D----2D----2D----2D----2D----2D----2D
  The code is running with the 2D cutoff
  Please refer to:
  Sohier, T., Calandra, M., & Mauri, F. (2017), 
  Density functional perturbation theory for gated two-dimensional heterostructures:
  Theoretical developments and application to flexural phonons in graphene.
  Physical Review B, 96(7), 75448. https://doi.org/10.1103/PhysRevB.96.075448
 ----2D----2D----2D----2D----2D----2D----2D----2D----2D----2D----2D----2D

     Initial potential from superposition of free atoms

     starting charge      25.9986, renormalised to      26.0000

     negative rho (up, down):  1.268E-04 0.000E+00
     Starting wfcs are   22 randomized atomic wfcs

     total cpu time spent up to now is        2.9 secs

     per-process dynamical memory:    78.5 Mb

     Self-consistent Calculation

     iteration #  1     ecut=    35.00 Ry     beta= 0.35
     Davidson diagonalization with overlap
     ethr =  1.00E-02,  avg # of iterations =  3.1

     negative rho (up, down):  4.116E-05 0.000E+00

     total cpu time spent up to now is        4.9 secs

     total energy              =    -161.06469560 Ry
     estimated scf accuracy    <       0.27584576 Ry

     iteration #  2     ecut=    35.00 Ry     beta= 0.35
     Davidson diagonalization with overlap
     ethr =  1.06E-03,  avg # of iterations =  6.7

     negative rho (up, down):  5.815E-05 0.000E+00

     total cpu time spent up to now is        7.2 secs

     total energy              =    -160.93457918 Ry
     estimated scf accuracy    <       1.47160517 Ry

     iteration #  3     ecut=    35.00 Ry     beta= 0.35
     Davidson diagonalization with overlap
     ethr =  1.06E-03,  avg # of iterations =  4.4

     negative rho (up, down):  4.571E-05 0.000E+00

     total cpu time spent up to now is        9.2 secs

     total energy              =    -161.15704138 Ry
     estimated scf accuracy    <       0.08454297 Ry

     iteration #  4     ecut=    35.00 Ry     beta= 0.35
     Davidson diagonalization with overlap
     ethr =  3.25E-04,  avg # of iterations =  1.9

     negative rho (up, down):  5.514E-05 0.000E+00

     total cpu time spent up to now is       11.4 secs

     total energy              =    -161.15525459 Ry
     estimated scf accuracy    <       0.02641098 Ry

     iteration #  5     ecut=    35.00 Ry     beta= 0.35
     Davidson diagonalization with overlap
     ethr =  1.02E-04,  avg # of iterations =  4.0

     negative rho (up, down):  5.954E-05 0.000E+00

     total cpu time spent up to now is       13.4 secs

     total energy              =    -161.15759292 Ry
     estimated scf accuracy    <       0.00271497 Ry

     iteration #  6     ecut=    35.00 Ry     beta= 0.35
     Davidson diagonalization with overlap
     ethr =  1.04E-05,  avg # of iterations =  5.4

     negative rho (up, down):  8.363E-05 0.000E+00

     total cpu time spent up to now is       15.5 secs

     total energy              =    -161.15794982 Ry
     estimated scf accuracy    <       0.00058066 Ry

     iteration #  7     ecut=    35.00 Ry     beta= 0.35
     Davidson diagonalization with overlap
     ethr =  2.23E-06,  avg # of iterations =  4.9

     negative rho (up, down):  8.473E-05 0.000E+00

     total cpu time spent up to now is       17.6 secs

     total energy              =    -161.15792178 Ry
     estimated scf accuracy    <       0.00041056 Ry

     iteration #  8     ecut=    35.00 Ry     beta= 0.35
     Davidson diagonalization with overlap
     ethr =  1.58E-06,  avg # of iterations =  2.9

     negative rho (up, down):  9.812E-05 0.000E+00

     total cpu time spent up to now is       19.3 secs

     total energy              =    -161.15799861 Ry
     estimated scf accuracy    <       0.00002415 Ry

     iteration #  9     ecut=    35.00 Ry     beta= 0.35
     Davidson diagonalization with overlap
     ethr =  9.29E-08,  avg # of iterations =  2.9

     negative rho (up, down):  9.747E-05 0.000E+00

     total cpu time spent up to now is       21.4 secs

     total energy              =    -161.15800444 Ry
     estimated scf accuracy    <       0.00000337 Ry

     iteration # 10     ecut=    35.00 Ry     beta= 0.35
     Davidson diagonalization with overlap
     ethr =  1.30E-08,  avg # of iterations =  2.0

     negative rho (up, down):  9.607E-05 0.000E+00

     total cpu time spent up to now is       23.2 secs

     total energy              =    -161.15800439 Ry
     estimated scf accuracy    <       0.00000086 Ry

     iteration # 11     ecut=    35.00 Ry     beta= 0.35
     Davidson diagonalization with overlap
     ethr =  3.31E-09,  avg # of iterations =  3.9

     negative rho (up, down):  9.624E-05 0.000E+00

     total cpu time spent up to now is       25.3 secs

     total energy              =    -161.15800462 Ry
     estimated scf accuracy    <       0.00000046 Ry

     iteration # 12     ecut=    35.00 Ry     beta= 0.35
     Davidson diagonalization with overlap
     ethr =  1.79E-09,  avg # of iterations =  2.1

     negative rho (up, down):  9.604E-05 0.000E+00

     total cpu time spent up to now is       27.1 secs

     End of self-consistent calculation

          k = 0.0000 0.0000 0.0000 (  4067 PWs)   bands (ev):

   -58.8981 -35.0727 -34.8546 -34.8546 -20.5461 -16.8414 -12.7729  -7.6224
    -7.1170  -7.1169  -5.6513  -5.6511  -3.9687  -2.4548  -1.9953  -1.9953
    -1.0678

          k = 0.0000 0.2887 0.0000 (  4106 PWs)   bands (ev):

   -58.8804 -35.0489 -35.0298 -34.8976 -20.1869 -16.3708 -12.5440  -8.9708
    -7.5144  -7.3075  -6.6162  -5.8049  -4.3227  -2.6317  -1.8159  -1.2672
    -0.8196

          k = 0.0000-0.5774 0.0000 (  4108 PWs)   bands (ev):

   -58.8625 -35.2342 -34.9878 -34.9402 -19.7973 -15.8287 -12.3503 -10.3097
    -8.2409  -7.7486  -6.9421  -5.5996  -4.4915  -1.2727  -1.1941  -0.7816
     0.0368

          k = 0.2500 0.1443 0.0000 (  4106 PWs)   bands (ev):

   -58.8804 -35.0489 -35.0298 -34.8976 -20.1869 -16.3708 -12.5440  -8.9708
    -7.5145  -7.3074  -6.6162  -5.8048  -4.3228  -2.6317  -1.8159  -1.2672
    -0.8196

          k = 0.2500 0.4330 0.0000 (  4102 PWs)   bands (ev):

   -58.8624 -35.1650 -35.0116 -34.9882 -19.7999 -15.8247 -12.3050  -9.8240
    -8.7793  -7.7601  -6.7283  -6.2541  -4.2687  -2.2048  -1.1554  -0.6773
    -0.0895

          k =-0.5000-0.2887 0.0000 (  4108 PWs)   bands (ev):

   -58.8625 -35.2342 -34.9878 -34.9402 -19.7974 -15.8287 -12.3503 -10.3097
    -8.2408  -7.7485  -6.9421  -5.5995  -4.4916  -1.2727  -1.1941  -0.7816
     0.0369

          k =-0.5000 0.0000 0.0000 (  4102 PWs)   bands (ev):

   -58.8624 -35.1650 -35.0115 -34.9882 -19.7999 -15.8247 -12.3051  -9.8240
    -8.7793  -7.7601  -6.7283  -6.2541  -4.2687  -2.2048  -1.1555  -0.6773
    -0.0894

     the Fermi energy is    -3.3554 ev

!    total energy              =    -161.15800471 Ry
     estimated scf accuracy    <       0.00000001 Ry
     smearing contrib. (-TS)   =       0.00004452 Ry
     internal energy E=F+TS    =    -161.15804923 Ry

     The total energy is F=E-TS. E is the sum of the following terms:
     one-electron contribution =   -1437.31206981 Ry
     hartree contribution      =     715.91973295 Ry
     xc contribution           =     -29.68033821 Ry
     ewald contribution        =     589.91462584 Ry

     convergence has been achieved in  12 iterations

     negative rho (up, down):  9.604E-05 0.000E+00

     Forces acting on atoms (cartesian axes, Ry/au):

     atom    1 type  2   force =     0.00000000   -0.00000395    0.01224053
     atom    2 type  3   force =     0.00000000    0.00000256   -0.51144122
     atom    3 type  3   force =     0.00000000   -0.00000102    0.00959177
     atom    4 type  1   force =     0.00000000    0.00000241    0.48960891

     Total force =     0.708188     Total SCF correction =     0.000416


     Computing stress (Cartesian axis) and pressure


     negative rho (up, down):  9.604E-05 0.000E+00
          total   stress  (Ry/bohr**3)                   (kbar)     P=       40.00
   0.00003347   0.00000000   0.00000000            4.92        0.00        0.00
   0.00000000   0.00003352   0.00000000            0.00        4.93        0.00
   0.00000000   0.00000000   0.00074870            0.00        0.00      110.14


     BFGS Geometry Optimization
     Energy error            =      5.0E-01 Ry
     Gradient error          =      5.1E-01 Ry/Bohr

     number of scf cycles    =   1
     number of bfgs steps    =   0

     energy             new  =    -161.1580047100 Ry

     new trust radius        =       0.5000000000 bohr
     new conv_thr            =       0.0000001000 Ry


ATOMIC_POSITIONS (angstrom)
Nb               0.0000000000        0.0000065997        0.0063325089
S                1.6700000000        0.9641591629        1.3046508158
S                1.6700000000        0.9641573083       -1.5642772199
H                1.6700000000        0.9641590865        2.9225333165



     Writing config-only to output data dir ./tmp/candidate_NbS2_H.save/ :
     XML data file
     NEW-OLD atomic charge density approx. for the potential

     negative rho (up, down):  8.552E-05 0.000E+00

     total cpu time spent up to now is       32.9 secs

     per-process dynamical memory:   110.1 Mb

     Self-consistent Calculation

     iteration #  1     ecut=    35.00 Ry     beta= 0.35
     Davidson diagonalization with overlap
     c_bands:  1 eigenvalues not converged
     c_bands:  1 eigenvalues not converged
     c_bands:  1 eigenvalues not converged
     c_bands:  1 eigenvalues not converged
     c_bands:  1 eigenvalues not converged
     ethr =  1.00E-06,  avg # of iterations = 19.9

     negative rho (up, down):  8.094E-05 0.000E+00

     total cpu time spent up to now is       36.1 secs

     total energy              =    -161.19912094 Ry
     estimated scf accuracy    <       0.07723651 Ry

     iteration #  2     ecut=    35.00 Ry     beta= 0.35
     Davidson diagonalization with overlap
     ethr =  2.97E-04,  avg # of iterations =  2.0

     negative rho (up, down):  8.958E-05 0.000E+00

     total cpu time spent up to now is       37.8 secs

     total energy              =    -161.19782849 Ry
     estimated scf accuracy    <       0.04779342 Ry

     iteration #  3     ecut=    35.00 Ry     beta= 0.35
     Davidson diagonalization with overlap
     ethr =  1.84E-04,  avg # of iterations =  2.4

     negative rho (up, down):  8.563E-05 0.000E+00

     total cpu time spent up to now is       39.8 secs

     total energy              =    -161.20122095 Ry
     estimated scf accuracy    <       0.04620241 Ry

     iteration #  4     ecut=    35.00 Ry     beta= 0.35
     Davidson diagonalization with overlap
     ethr =  1.78E-04,  avg # of iterations =  2.6

     negative rho (up, down):  8.041E-05 0.000E+00

     total cpu time spent up to now is       41.8 secs

     total energy              =    -161.20816364 Ry
     estimated scf accuracy    <       0.00705224 Ry

     iteration #  5     ecut=    35.00 Ry     beta= 0.35
     Davidson diagonalization with overlap
     ethr =  2.71E-05,  avg # of iterations =  2.0

     negative rho (up, down):  8.093E-05 0.000E+00

     total cpu time spent up to now is       43.6 secs

     total energy              =    -161.20933435 Ry
     estimated scf accuracy    <       0.00062787 Ry

     iteration #  6     ecut=    35.00 Ry     beta= 0.35
     Davidson diagonalization with overlap
     ethr =  2.41E-06,  avg # of iterations =  5.0

     negative rho (up, down):  8.738E-05 0.000E+00

     total cpu time spent up to now is       45.6 secs

     total energy              =    -161.20943690 Ry
     estimated scf accuracy    <       0.00014324 Ry

     iteration #  7     ecut=    35.00 Ry     beta= 0.35
     Davidson diagonalization with overlap
     ethr =  5.51E-07,  avg # of iterations =  2.0

     negative rho (up, down):  8.519E-05 0.000E+00

     total cpu time spent up to now is       47.4 secs

     total energy              =    -161.20945444 Ry
     estimated scf accuracy    <       0.00003465 Ry

     iteration #  8     ecut=    35.00 Ry     beta= 0.35
     Davidson diagonalization with overlap
     ethr =  1.33E-07,  avg # of iterations =  2.4

     negative rho (up, down):  8.366E-05 0.000E+00

     total cpu time spent up to now is       49.2 secs

     total energy              =    -161.20945991 Ry
     estimated scf accuracy    <       0.00000251 Ry

     iteration #  9     ecut=    35.00 Ry     beta= 0.35
     Davidson diagonalization with overlap
     ethr =  9.64E-09,  avg # of iterations =  3.6

     negative rho (up, down):  8.271E-05 0.000E+00

     total cpu time spent up to now is       51.0 secs

     total energy              =    -161.20946065 Ry
     estimated scf accuracy    <       0.00000092 Ry

     iteration # 10     ecut=    35.00 Ry     beta= 0.35
     Davidson diagonalization with overlap
     ethr =  3.55E-09,  avg # of iterations =  1.9

     negative rho (up, down):  8.230E-05 0.000E+00

     total cpu time spent up to now is       52.9 secs

     total energy              =    -161.20946068 Ry
     estimated scf accuracy    <       0.00000011 Ry

     iteration # 11     ecut=    35.00 Ry     beta= 0.35
     Davidson diagonalization with overlap
     ethr =  4.23E-10,  avg # of iterations =  4.4

     negative rho (up, down):  8.215E-05 0.000E+00

     total cpu time spent up to now is       54.7 secs

     total energy              =    -161.20946069 Ry
     estimated scf accuracy    <       0.00000012 Ry

     iteration # 12     ecut=    35.00 Ry     beta= 0.35
     Davidson diagonalization with overlap
     ethr =  4.23E-10,  avg # of iterations =  2.9

     negative rho (up, down):  8.206E-05 0.000E+00

     total cpu time spent up to now is       56.5 secs

     End of self-consistent calculation

          k = 0.0000 0.0000 0.0000 (  4067 PWs)   bands (ev):

   -59.3632 -35.5638 -35.4247 -35.4247 -19.8776 -17.3338 -12.2467  -8.6850
    -8.6849  -7.8578  -6.3625  -6.3624  -4.9995  -2.4862  -2.0596  -2.0596
    -1.5089

          k = 0.0000 0.2887 0.0000 (  4106 PWs)   bands (ev):

   -59.3435 -35.6526 -35.5122 -35.4732 -19.3483 -17.0353 -11.8065  -9.8876
    -8.5653  -8.2274  -6.9831  -6.6324  -5.1239  -3.6641  -2.0504  -1.9576
    -0.7450

          k = 0.0000-0.5774 0.0000 (  4108 PWs)   bands (ev):

   -59.3235 -35.8666 -35.5211 -35.4636 -18.8346 -16.6240 -11.4674 -10.8528
    -8.9449  -8.8065  -7.3330  -6.2787  -5.3183  -2.6209  -1.9384  -1.5063
    -0.6381

          k = 0.2500 0.1443 0.0000 (  4106 PWs)   bands (ev):

   -59.3435 -35.6526 -35.5122 -35.4732 -19.3483 -17.0353 -11.8065  -9.8876
    -8.5652  -8.2274  -6.9832  -6.6323  -5.1239  -3.6641  -2.0503  -1.9576
    -0.7450

          k = 0.2500 0.4330 0.0000 (  4102 PWs)   bands (ev):

   -59.3234 -35.7897 -35.6014 -35.4638 -18.8304 -16.6103 -11.3633 -10.5174
    -9.5834  -8.3560  -7.4546  -6.8211  -5.1212  -3.3968  -2.0959  -1.2016
    -0.7276

          k =-0.5000-0.2887 0.0000 (  4108 PWs)   bands (ev):

   -59.3235 -35.8666 -35.5211 -35.4636 -18.8346 -16.6240 -11.4674 -10.8528
    -8.9449  -8.8064  -7.3331  -6.2785  -5.3184  -2.6210  -1.9384  -1.5064
    -0.6381

          k =-0.5000 0.0000 0.0000 (  4102 PWs)   bands (ev):

   -59.3234 -35.7897 -35.6014 -35.4638 -18.8304 -16.6103 -11.3633 -10.5174
    -9.5833  -8.3560  -7.4546  -6.8211  -5.1212  -3.3968  -2.0960  -1.2016
    -0.7276

     the Fermi energy is    -4.3595 ev

!    total energy              =    -161.20946068 Ry
     estimated scf accuracy    <       0.00000006 Ry
     smearing contrib. (-TS)   =       0.00007552 Ry
     internal energy E=F+TS    =    -161.20953620 Ry

     The total energy is F=E-TS. E is the sum of the following terms:
     one-electron contribution =   -1463.33255017 Ry
     hartree contribution      =     728.45718765 Ry
     xc contribution           =     -29.58889185 Ry
     ewald contribution        =     603.25471817 Ry

     convergence has been achieved in  12 iterations

     negative rho (up, down):  8.206E-05 0.000E+00

     Forces acting on atoms (cartesian axes, Ry/au):

     atom    1 type  2   force =     0.00000000   -0.00000374   -0.09839122
     atom    2 type  3   force =     0.00000000    0.00000233    0.19729559
     atom    3 type  3   force =     0.00000000    0.00000136   -0.00704134
     atom    4 type  1   force =     0.00000000    0.00000005   -0.09186304

     Total force =     0.238945     Total SCF correction =     0.001725


     Computing stress (Cartesian axis) and pressure


     negative rho (up, down):  8.206E-05 0.000E+00
          total   stress  (Ry/bohr**3)                   (kbar)     P=       19.79
   0.00022128   0.00000000   0.00000000           32.55        0.00        0.00
   0.00000000   0.00022131  -0.00000001            0.00       32.56       -0.00
   0.00000000  -0.00000001  -0.00003906            0.00       -0.00       -5.75

     Energy error            =      5.1E-02 Ry
     Gradient error          =      2.0E-01 Ry/Bohr

     number of scf cycles    =   2
     number of bfgs steps    =   1

     energy             old  =    -161.1580047100 Ry
     energy             new  =    -161.2094606783 Ry

     CASE: energy            _new < energy            _old

     new trust radius        =       0.1414594226 bohr
     new conv_thr            =       0.0000001000 Ry


ATOMIC_POSITIONS (angstrom)
Nb               0.0000000000        0.0000050245       -0.0337823101
S                1.6700000000        0.9641601467        1.3795079184
S                1.6700000000        0.9641578536       -1.5670481065
H                1.6700000000        0.9641591327        2.8905619194



     Writing config-only to output data dir ./tmp/candidate_NbS2_H.save/ :
     XML data file
     NEW-OLD atomic charge density approx. for the potential

     negative rho (up, down):  1.016E-04 0.000E+00

     total cpu time spent up to now is       62.5 secs

     per-process dynamical memory:   110.1 Mb

     Self-consistent Calculation

     iteration #  1     ecut=    35.00 Ry     beta= 0.35
     Davidson diagonalization with overlap
     ethr =  1.00E-06,  avg # of iterations = 14.1

     negative rho (up, down):  9.410E-05 0.000E+00

     total cpu time spent up to now is       65.4 secs

     total energy              =    -161.23789493 Ry
     estimated scf accuracy    <       0.00685815 Ry

     iteration #  2     ecut=    35.00 Ry     beta= 0.35
     Davidson diagonalization with overlap
     ethr =  2.64E-05,  avg # of iterations =  5.4

     negative rho (up, down):  9.211E-05 0.000E+00

     total cpu time spent up to now is       67.3 secs

     total energy              =    -161.23711868 Ry
     estimated scf accuracy    <       0.03008133 Ry

     iteration #  3     ecut=    35.00 Ry     beta= 0.35
     Davidson diagonalization with overlap
     ethr =  2.64E-05,  avg # of iterations =  4.4

     negative rho (up, down):  8.694E-05 0.000E+00

     total cpu time spent up to now is       69.1 secs

     total energy              =    -161.24068035 Ry
     estimated scf accuracy    <       0.00048833 Ry

     iteration #  4     ecut=    35.00 Ry     beta= 0.35
     Davidson diagonalization with overlap
     ethr =  1.88E-06,  avg # of iterations =  4.9

     negative rho (up, down):  8.497E-05 0.000E+00

     total cpu time spent up to now is       71.1 secs

     total energy              =    -161.24076211 Ry
     estimated scf accuracy    <       0.00032833 Ry

     iteration #  5     ecut=    35.00 Ry     beta= 0.35
     Davidson diagonalization with overlap
     ethr =  1.26E-06,  avg # of iterations =  1.6

     negative rho (up, down):  8.395E-05 0.000E+00

     total cpu time spent up to now is       73.0 secs

     total energy              =    -161.24078606 Ry
     estimated scf accuracy    <       0.00006130 Ry

     iteration #  6     ecut=    35.00 Ry     beta= 0.35
     Davidson diagonalization with overlap
     ethr =  2.36E-07,  avg # of iterations =  3.9

     negative rho (up, down):  8.352E-05 0.000E+00

     total cpu time spent up to now is       74.9 secs

     total energy              =    -161.24079623 Ry
     estimated scf accuracy    <       0.00001468 Ry

     iteration #  7     ecut=    35.00 Ry     beta= 0.35
     Davidson diagonalization with overlap
     ethr =  5.65E-08,  avg # of iterations =  2.4

     negative rho (up, down):  8.305E-05 0.000E+00

     total cpu time spent up to now is       76.8 secs

     total energy              =    -161.24079813 Ry
     estimated scf accuracy    <       0.00000050 Ry

     iteration #  8     ecut=    35.00 Ry     beta= 0.35
     Davidson diagonalization with overlap
     ethr =  1.93E-09,  avg # of iterations =  5.3

     negative rho (up, down):  8.277E-05 0.000E+00

     total cpu time spent up to now is       78.8 secs

     total energy              =    -161.24079823 Ry
     estimated scf accuracy    <       0.00000200 Ry

     iteration #  9     ecut=    35.00 Ry     beta= 0.35
     Davidson diagonalization with overlap
     ethr =  1.93E-09,  avg # of iterations =  3.9

     negative rho (up, down):  8.239E-05 0.000E+00

     total cpu time spent up to now is       80.7 secs

     End of self-consistent calculation

          k = 0.0000 0.0000 0.0000 (  4067 PWs)   bands (ev):

   -59.1489 -35.3488 -35.1666 -35.1666 -19.7157 -17.1499 -12.2383  -8.0006
    -8.0005  -7.8836  -6.1830  -6.1829  -4.5122  -2.6069  -1.8803  -1.8802
    -1.4109

          k = 0.0000 0.2887 0.0000 (  4106 PWs)   bands (ev):

   -59.1300 -35.3806 -35.3005 -35.2129 -19.2184 -16.8011 -11.8778  -9.4838
    -7.9986  -7.9983  -6.9252  -6.4111  -4.7241  -3.4262  -1.8528  -1.5434
    -0.9201

          k = 0.0000-0.5774 0.0000 (  4108 PWs)   bands (ev):

   -59.1108 -35.5835 -35.2587 -35.2536 -18.7091 -16.3561 -11.6117 -10.6342
    -8.6654  -8.3598  -7.2491  -6.0665  -4.9257  -2.2817  -1.6049  -1.1683
    -0.4410

          k = 0.2500 0.1443 0.0000 (  4106 PWs)   bands (ev):

   -59.1300 -35.3806 -35.3005 -35.2129 -19.2184 -16.8011 -11.8778  -9.4838
    -7.9986  -7.9982  -6.9252  -6.4110  -4.7241  -3.4262  -1.8527  -1.5434
    -0.9201

          k = 0.2500 0.4330 0.0000 (  4102 PWs)   bands (ev):

   -59.1107 -35.5095 -35.3356 -35.2539 -18.7091 -16.3446 -11.5340 -10.2250
    -9.2745  -8.1346  -7.1838  -6.6151  -4.7539  -3.0556  -1.6552  -0.8830
    -0.7353

          k =-0.5000-0.2887 0.0000 (  4108 PWs)   bands (ev):

   -59.1108 -35.5835 -35.2586 -35.2536 -18.7091 -16.3561 -11.6117 -10.6343
    -8.6654  -8.3597  -7.2491  -6.0664  -4.9258  -2.2817  -1.6050  -1.1683
    -0.4410

          k =-0.5000 0.0000 0.0000 (  4102 PWs)   bands (ev):

   -59.1107 -35.5095 -35.3356 -35.2539 -18.7091 -16.3447 -11.5340 -10.2250
    -9.2745  -8.1346  -7.1839  -6.6151  -4.7539  -3.0556  -1.6554  -0.8830
    -0.7353

     the Fermi energy is    -4.0265 ev

!    total energy              =    -161.24079838 Ry
     estimated scf accuracy    <       0.00000005 Ry
     smearing contrib. (-TS)   =       0.00027922 Ry
     internal energy E=F+TS    =    -161.24107760 Ry

     The total energy is F=E-TS. E is the sum of the following terms:
     one-electron contribution =   -1454.06159939 Ry
     hartree contribution      =     724.02631391 Ry
     xc contribution           =     -29.56812618 Ry
     ewald contribution        =     598.36233406 Ry

     convergence has been achieved in   9 iterations

     negative rho (up, down):  8.239E-05 0.000E+00

     Forces acting on atoms (cartesian axes, Ry/au):

     atom    1 type  2   force =     0.00000000   -0.00000027   -0.01705936
     atom    2 type  3   force =     0.00000000    0.00000061    0.11199036
     atom    3 type  3   force =     0.00000000   -0.00000156   -0.02083870
     atom    4 type  1   force =     0.00000000    0.00000122   -0.07409231

     Total force =     0.136955     Total SCF correction =     0.001514


     Computing stress (Cartesian axis) and pressure


     negative rho (up, down):  8.239E-05 0.000E+00
          total   stress  (Ry/bohr**3)                   (kbar)     P=       10.59
   0.00014847   0.00000000   0.00000000           21.84        0.00        0.00
   0.00000000   0.00014852  -0.00000000            0.00       21.85       -0.00
   0.00000000  -0.00000000  -0.00008105            0.00       -0.00      -11.92

     Energy error            =      3.1E-02 Ry
     Gradient error          =      1.1E-01 Ry/Bohr

     number of scf cycles    =   3
     number of bfgs steps    =   2

     energy             old  =    -161.2094606783 Ry
     energy             new  =    -161.2407983830 Ry

     CASE: energy            _new < energy            _old

     new trust radius        =       0.1556053648 bohr
     new conv_thr            =       0.0000001000 Ry


ATOMIC_POSITIONS (angstrom)
Nb               0.0000000000        0.0000049315       -0.0437716551
S                1.6700000000        0.9641605773        1.4618507314
S                1.6700000000        0.9641564723       -1.5842091400
H                1.6700000000        0.9641601763        2.8353694849



     Writing config-only to output data dir ./tmp/candidate_NbS2_H.save/ :
     XML data file
     NEW-OLD atomic charge density approx. for the potential

     negative rho (up, down):  8.644E-05 0.000E+00

     total cpu time spent up to now is       88.2 secs

     per-process dynamical memory:   110.1 Mb

     Self-consistent Calculation

     iteration #  1     ecut=    35.00 Ry     beta= 0.35
     Davidson diagonalization with overlap
     ethr =  1.00E-06,  avg # of iterations = 13.1

     negative rho (up, down):  8.663E-05 0.000E+00

     total cpu time spent up to now is       91.8 secs

     total energy              =    -161.25457167 Ry
     estimated scf accuracy    <       0.00580993 Ry

     iteration #  2     ecut=    35.00 Ry     beta= 0.35
     Davidson diagonalization with overlap
     ethr =  2.23E-05,  avg # of iterations =  2.7

     negative rho (up, down):  8.808E-05 0.000E+00

     total cpu time spent up to now is       95.0 secs

     total energy              =    -161.25491698 Ry
     estimated scf accuracy    <       0.00356109 Ry

     iteration #  3     ecut=    35.00 Ry     beta= 0.35
     Davidson diagonalization with overlap
     ethr =  1.37E-05,  avg # of iterations =  3.0

     negative rho (up, down):  8.741E-05 0.000E+00

     total cpu time spent up to now is       97.7 secs

     total energy              =    -161.25521763 Ry
     estimated scf accuracy    <       0.00111739 Ry

     iteration #  4     ecut=    35.00 Ry     beta= 0.35
     Davidson diagonalization with overlap
     ethr =  4.30E-06,  avg # of iterations =  5.6

     negative rho (up, down):  8.588E-05 0.000E+00

     total cpu time spent up to now is      100.0 secs

     total energy              =    -161.25539309 Ry
     estimated scf accuracy    <       0.00081482 Ry

     iteration #  5     ecut=    35.00 Ry     beta= 0.35
     Davidson diagonalization with overlap
     ethr =  3.13E-06,  avg # of iterations =  2.0

     negative rho (up, down):  8.588E-05 0.000E+00

     total cpu time spent up to now is      102.2 secs

     total energy              =    -161.25549632 Ry
     estimated scf accuracy    <       0.00003069 Ry

     iteration #  6     ecut=    35.00 Ry     beta= 0.35
     Davidson diagonalization with overlap
     ethr =  1.18E-07,  avg # of iterations =  4.3

     negative rho (up, down):  8.594E-05 0.000E+00

     total cpu time spent up to now is      104.3 secs

     total energy              =    -161.25550089 Ry
     estimated scf accuracy    <       0.00001087 Ry

     iteration #  7     ecut=    35.00 Ry     beta= 0.35
     Davidson diagonalization with overlap
     ethr =  4.18E-08,  avg # of iterations =  2.4

     negative rho (up, down):  8.547E-05 0.000E+00

     total cpu time spent up to now is      106.4 secs

     total energy              =    -161.25550248 Ry
     estimated scf accuracy    <       0.00000152 Ry

     iteration #  8     ecut=    35.00 Ry     beta= 0.35
     Davidson diagonalization with overlap
     ethr =  5.84E-09,  avg # of iterations =  2.3

     negative rho (up, down):  8.519E-05 0.000E+00

     total cpu time spent up to now is      108.2 secs

     total energy              =    -161.25550280 Ry
     estimated scf accuracy    <       0.00000011 Ry

     iteration #  9     ecut=    35.00 Ry     beta= 0.35
     Davidson diagonalization with overlap
     ethr =  4.08E-10,  avg # of iterations =  3.3

     negative rho (up, down):  8.496E-05 0.000E+00

     total cpu time spent up to now is      110.2 secs

     End of self-consistent calculation

          k = 0.0000 0.0000 0.0000 (  4067 PWs)   bands (ev):

   -58.9885 -35.1777 -34.9705 -34.9705 -19.7372 -16.9658 -12.3561  -7.7862
    -7.4497  -7.4496  -5.9074  -5.9073  -4.1703  -2.5982  -1.9156  -1.9156
    -1.1820

          k = 0.0000 0.2887 0.0000 (  4106 PWs)   bands (ev):

   -58.9703 -35.1730 -35.1326 -35.0149 -19.2838 -16.5597 -12.0625  -9.1451
    -7.7385  -7.5504  -6.7792  -6.0983  -4.4564  -3.1050  -1.7962  -1.3084
    -0.9544

          k = 0.0000-0.5774 0.0000 (  4108 PWs)   bands (ev):

   -58.9518 -35.3661 -35.0882 -35.0588 -18.7989 -16.0694 -11.8498 -10.4122
    -8.4241  -7.9736  -7.0949  -5.8108  -4.6478  -1.7867  -1.3494  -0.9967
    -0.1411

          k = 0.2500 0.1443 0.0000 (  4106 PWs)   bands (ev):

   -58.9703 -35.1730 -35.1326 -35.0149 -19.2838 -16.5598 -12.0625  -9.1452
    -7.7385  -7.5503  -6.7792  -6.0982  -4.4564  -3.1050  -1.7962  -1.3084
    -0.9544

          k = 0.2500 0.4330 0.0000 (  4102 PWs)   bands (ev):

   -58.9517 -35.2948 -35.1326 -35.0885 -18.8014 -16.0617 -11.7872  -9.9563
    -8.9737  -7.9151  -6.9258  -6.4185  -4.4548  -2.6674  -1.3159  -0.8063
    -0.4721

          k =-0.5000-0.2887 0.0000 (  4108 PWs)   bands (ev):

   -58.9518 -35.3661 -35.0882 -35.0588 -18.7989 -16.0694 -11.8498 -10.4122
    -8.4241  -7.9735  -7.0949  -5.8107  -4.6478  -1.7868  -1.3495  -0.9967
    -0.1411

          k =-0.5000 0.0000 0.0000 (  4102 PWs)   bands (ev):

   -58.9517 -35.2947 -35.1326 -35.0885 -18.8014 -16.0617 -11.7872  -9.9563
    -8.9737  -7.9151  -6.9259  -6.4185  -4.4547  -2.6674  -1.3160  -0.8064
    -0.4721

     the Fermi energy is    -3.7072 ev

!    total energy              =    -161.25550279 Ry
     estimated scf accuracy    <       0.00000004 Ry
     smearing contrib. (-TS)   =       0.00026340 Ry
     internal energy E=F+TS    =    -161.25576619 Ry

     The total energy is F=E-TS. E is the sum of the following terms:
     one-electron contribution =   -1442.51505708 Ry
     hartree contribution      =     718.42302773 Ry
     xc contribution           =     -29.56502796 Ry
     ewald contribution        =     592.40129112 Ry

     convergence has been achieved in   9 iterations

     negative rho (up, down):  8.496E-05 0.000E+00

     Forces acting on atoms (cartesian axes, Ry/au):

     atom    1 type  2   force =     0.00000000   -0.00000189    0.01347455
     atom    2 type  3   force =     0.00000000   -0.00000093    0.00134424
     atom    3 type  3   force =     0.00000000    0.00000233   -0.01008698
     atom    4 type  1   force =     0.00000000    0.00000049   -0.00473180

     Total force =     0.017536     Total SCF correction =     0.001337


     Computing stress (Cartesian axis) and pressure


     negative rho (up, down):  8.496E-05 0.000E+00
          total   stress  (Ry/bohr**3)                   (kbar)     P=        6.96
   0.00008672   0.00000000   0.00000000           12.76        0.00        0.00
   0.00000000   0.00008676  -0.00000000            0.00       12.76       -0.00
   0.00000000  -0.00000000  -0.00003162            0.00       -0.00       -4.65

     Energy error            =      1.5E-02 Ry
     Gradient error          =      1.3E-02 Ry/Bohr

     number of scf cycles    =   4
     number of bfgs steps    =   3

     energy             old  =    -161.2407983830 Ry
     energy             new  =    -161.2555027930 Ry

     CASE: energy            _new < energy            _old

     new trust radius        =       0.0113500464 bohr
     new conv_thr            =       0.0000000135 Ry


ATOMIC_POSITIONS (angstrom)
Nb               0.0000000000        0.0000038505       -0.0377654693
S                1.6700000000        0.9641600943        1.4645695734
S                1.6700000000        0.9641577902       -1.5895370164
H                1.6700000000        0.9641604224        2.8319723334



     Writing config-only to output data dir ./tmp/candidate_NbS2_H.save/ :
     XML data file
     NEW-OLD atomic charge density approx. for the potential

     negative rho (up, down):  8.596E-05 0.000E+00

     total cpu time spent up to now is      117.8 secs

     per-process dynamical memory:   110.1 Mb

     Self-consistent Calculation

     iteration #  1     ecut=    35.00 Ry     beta= 0.35
     Davidson diagonalization with overlap
     ethr =  1.00E-06,  avg # of iterations =  4.1

     Threshold (ethr) on eigenvalues was too large:
     Diagonalizing with lowered threshold

     Davidson diagonalization with overlap
     ethr =  8.07E-08,  avg # of iterations =  3.4

     negative rho (up, down):  8.569E-05 0.000E+00

     total cpu time spent up to now is      121.5 secs

     total energy              =    -161.25568569 Ry
     estimated scf accuracy    <       0.00002855 Ry

     iteration #  2     ecut=    35.00 Ry     beta= 0.35
     Davidson diagonalization with overlap
     ethr =  1.10E-07,  avg # of iterations =  3.6

     negative rho (up, down):  8.556E-05 0.000E+00

     total cpu time spent up to now is      123.4 secs

     total energy              =    -161.25568327 Ry
     estimated scf accuracy    <       0.00005335 Ry

     iteration #  3     ecut=    35.00 Ry     beta= 0.35
     Davidson diagonalization with overlap
     ethr =  1.10E-07,  avg # of iterations =  2.9

     negative rho (up, down):  8.545E-05 0.000E+00

     total cpu time spent up to now is      125.5 secs

     total energy              =    -161.25569287 Ry
     estimated scf accuracy    <       0.00000543 Ry

     iteration #  4     ecut=    35.00 Ry     beta= 0.35
     Davidson diagonalization with overlap
     ethr =  2.09E-08,  avg # of iterations =  2.1

     negative rho (up, down):  8.541E-05 0.000E+00

     total cpu time spent up to now is      127.6 secs

     total energy              =    -161.25569336 Ry
     estimated scf accuracy    <       0.00000079 Ry

     iteration #  5     ecut=    35.00 Ry     beta= 0.35
     Davidson diagonalization with overlap
     ethr =  3.03E-09,  avg # of iterations =  2.0

     negative rho (up, down):  8.540E-05 0.000E+00

     total cpu time spent up to now is      129.5 secs

     total energy              =    -161.25569348 Ry
     estimated scf accuracy    <       0.00000010 Ry

     iteration #  6     ecut=    35.00 Ry     beta= 0.35
     Davidson diagonalization with overlap
     ethr =  3.83E-10,  avg # of iterations =  2.3

     negative rho (up, down):  8.537E-05 0.000E+00

     total cpu time spent up to now is      131.7 secs

     total energy              =    -161.25569348 Ry
     estimated scf accuracy    <       0.00000002 Ry

     iteration #  7     ecut=    35.00 Ry     beta= 0.35
     Davidson diagonalization with overlap
     ethr =  9.07E-11,  avg # of iterations =  2.4

     negative rho (up, down):  8.530E-05 0.000E+00

     total cpu time spent up to now is      133.8 secs

     End of self-consistent calculation

          k = 0.0000 0.0000 0.0000 (  4067 PWs)   bands (ev):

   -58.9845 -35.1711 -34.9653 -34.9653 -19.7513 -16.9439 -12.3729  -7.7565
    -7.4516  -7.4515  -5.8609  -5.8607  -4.1989  -2.5905  -1.8966  -1.8965
    -1.2063

          k = 0.0000 0.2887 0.0000 (  4106 PWs)   bands (ev):

   -58.9663 -35.1674 -35.1260 -35.0096 -19.3015 -16.5336 -12.0786  -9.1456
    -7.7113  -7.5584  -6.7498  -6.0480  -4.4706  -3.0878  -1.7889  -1.3344
    -0.9378

          k = 0.0000-0.5774 0.0000 (  4108 PWs)   bands (ev):

   -58.9479 -35.3598 -35.0819 -35.0535 -18.8200 -16.0375 -11.8653 -10.4144
    -8.4036  -7.9739  -7.0766  -5.7732  -4.6566  -1.7499  -1.3405  -0.9888
    -0.1312

          k = 0.2500 0.1443 0.0000 (  4106 PWs)   bands (ev):

   -58.9663 -35.1674 -35.1260 -35.0096 -19.3015 -16.5336 -12.0786  -9.1457
    -7.7113  -7.5583  -6.7499  -6.0479  -4.4707  -3.0879  -1.7888  -1.3344
    -0.9378

          k = 0.2500 0.4330 0.0000 (  4102 PWs)   bands (ev):

   -58.9477 -35.2886 -35.1271 -35.0822 -18.8225 -16.0303 -11.8041  -9.9590
    -8.9623  -7.8982  -6.9049  -6.4019  -4.4447  -2.6505  -1.3129  -0.8060
    -0.4649

          k =-0.5000-0.2887 0.0000 (  4108 PWs)   bands (ev):

   -58.9479 -35.3598 -35.0819 -35.0535 -18.8200 -16.0375 -11.8653 -10.4144
    -8.4036  -7.9737  -7.0766  -5.7731  -4.6566  -1.7499  -1.3406  -0.9888
    -0.1312

          k =-0.5000 0.0000 0.0000 (  4102 PWs)   bands (ev):

   -58.9478 -35.2886 -35.1271 -35.0822 -18.8225 -16.0303 -11.8041  -9.9590
    -8.9623  -7.8982  -6.9049  -6.4019  -4.4447  -2.6505  -1.3130  -0.8060
    -0.4649

     the Fermi energy is    -3.7061 ev

!    total energy              =    -161.25569350 Ry
     estimated scf accuracy    <          2.8E-09 Ry
     smearing contrib. (-TS)   =       0.00021698 Ry
     internal energy E=F+TS    =    -161.25591048 Ry

     The total energy is F=E-TS. E is the sum of the following terms:
     one-electron contribution =   -1441.56089677 Ry
     hartree contribution      =     717.95161898 Ry
     xc contribution           =     -29.56279262 Ry
     ewald contribution        =     591.91615993 Ry

     convergence has been achieved in   7 iterations

     negative rho (up, down):  8.530E-05 0.000E+00

     Forces acting on atoms (cartesian axes, Ry/au):

     atom    1 type  2   force =     0.00000000   -0.00000032    0.00595194
     atom    2 type  3   force =     0.00000000   -0.00000081   -0.00267689
     atom    3 type  3   force =     0.00000000    0.00000069   -0.00363765
     atom    4 type  1   force =     0.00000000    0.00000044    0.00036259

     Total force =     0.007480     Total SCF correction =     0.000284


     Computing stress (Cartesian axis) and pressure


     negative rho (up, down):  8.530E-05 0.000E+00
          total   stress  (Ry/bohr**3)                   (kbar)     P=        6.35
   0.00008142   0.00000000   0.00000000           11.98        0.00        0.00
   0.00000000   0.00008146  -0.00000000            0.00       11.98       -0.00
   0.00000000  -0.00000000  -0.00003332            0.00       -0.00       -4.90

     Energy error            =      1.9E-04 Ry
     Gradient error          =      6.0E-03 Ry/Bohr

     number of scf cycles    =   5
     number of bfgs steps    =   4

     energy             old  =    -161.2555027930 Ry
     energy             new  =    -161.2556934998 Ry

     CASE: energy            _new < energy            _old

     new trust radius        =       0.0084880240 bohr
     new conv_thr            =       0.0000000019 Ry


ATOMIC_POSITIONS (angstrom)
Nb               0.0000000000        0.0000034482       -0.0332738004
S                1.6700000000        0.9641594319        1.4630171988
S                1.6700000000        0.9641585157       -1.5925621925
H                1.6700000000        0.9641607615        2.8320582154



     Writing config-only to output data dir ./tmp/candidate_NbS2_H.save/ :
     XML data file
     NEW-OLD atomic charge density approx. for the potential

     negative rho (up, down):  8.577E-05 0.000E+00

     total cpu time spent up to now is      140.8 secs

     per-process dynamical memory:   110.1 Mb

     Self-consistent Calculation

     iteration #  1     ecut=    35.00 Ry     beta= 0.35
     Davidson diagonalization with overlap
     ethr =  1.00E-06,  avg # of iterations =  3.4

     Threshold (ethr) on eigenvalues was too large:
     Diagonalizing with lowered threshold

     Davidson diagonalization with overlap
     ethr =  2.30E-08,  avg # of iterations =  3.7

     negative rho (up, down):  8.556E-05 0.000E+00

     total cpu time spent up to now is      144.4 secs

     total energy              =    -161.25572766 Ry
     estimated scf accuracy    <       0.00000861 Ry

     iteration #  2     ecut=    35.00 Ry     beta= 0.35
     Davidson diagonalization with overlap
     ethr =  3.31E-08,  avg # of iterations =  3.0

     negative rho (up, down):  8.543E-05 0.000E+00

     total cpu time spent up to now is      146.3 secs

     total energy              =    -161.25572751 Ry
     estimated scf accuracy    <       0.00000825 Ry

     iteration #  3     ecut=    35.00 Ry     beta= 0.35
     Davidson diagonalization with overlap
     ethr =  3.17E-08,  avg # of iterations =  2.7

     negative rho (up, down):  8.536E-05 0.000E+00

     total cpu time spent up to now is      148.3 secs

     total energy              =    -161.25572866 Ry
     estimated scf accuracy    <       0.00000237 Ry

     iteration #  4     ecut=    35.00 Ry     beta= 0.35
     Davidson diagonalization with overlap
     ethr =  9.11E-09,  avg # of iterations =  2.3

     negative rho (up, down):  8.534E-05 0.000E+00

     total cpu time spent up to now is      150.2 secs

     total energy              =    -161.25572907 Ry
     estimated scf accuracy    <       0.00000068 Ry

     iteration #  5     ecut=    35.00 Ry     beta= 0.35
     Davidson diagonalization with overlap
     ethr =  2.61E-09,  avg # of iterations =  1.7

     negative rho (up, down):  8.534E-05 0.000E+00

     total cpu time spent up to now is      152.1 secs

     total energy              =    -161.25572916 Ry
     estimated scf accuracy    <       0.00000005 Ry

     iteration #  6     ecut=    35.00 Ry     beta= 0.35
     Davidson diagonalization with overlap
     ethr =  2.09E-10,  avg # of iterations =  3.4

     negative rho (up, down):  8.533E-05 0.000E+00

     total cpu time spent up to now is      154.0 secs

     total energy              =    -161.25572916 Ry
     estimated scf accuracy    <       0.00000002 Ry

     iteration #  7     ecut=    35.00 Ry     beta= 0.35
     Davidson diagonalization with overlap
     ethr =  7.01E-11,  avg # of iterations =  2.7

     negative rho (up, down):  8.530E-05 0.000E+00

     total cpu time spent up to now is      156.0 secs

     End of self-consistent calculation

          k = 0.0000 0.0000 0.0000 (  4067 PWs)   bands (ev):

   -58.9867 -35.1721 -34.9681 -34.9681 -19.7551 -16.9355 -12.3785  -7.7398
    -7.4738  -7.4737  -5.8383  -5.8382  -4.2309  -2.5859  -1.8800  -1.8799
    -1.2319

          k = 0.0000 0.2887 0.0000 (  4106 PWs)   bands (ev):

   -58.9685 -35.1704 -35.1268 -35.0125 -19.3058 -16.5244 -12.0813  -9.1588
    -7.7016  -7.5805  -6.7350  -6.0245  -4.4898  -3.0882  -1.7848  -1.3599
    -0.9255

          k = 0.0000-0.5774 0.0000 (  4108 PWs)   bands (ev):

   -58.9501 -35.3628 -35.0828 -35.0563 -18.8254 -16.0258 -11.8663 -10.4240
    -8.3977  -7.9887  -7.0698  -5.7558  -4.6723  -1.7411  -1.3432  -0.9888
    -0.1409

          k = 0.2500 0.1443 0.0000 (  4106 PWs)   bands (ev):

   -58.9685 -35.1704 -35.1268 -35.0125 -19.3058 -16.5244 -12.0813  -9.1588
    -7.7017  -7.5804  -6.7350  -6.0244  -4.4899  -3.0882  -1.7848  -1.3599
    -0.9255

          k = 0.2500 0.4330 0.0000 (  4102 PWs)   bands (ev):

   -58.9500 -35.2916 -35.1300 -35.0831 -18.8278 -16.0188 -11.8054  -9.9708
    -8.9659  -7.8939  -6.8995  -6.3975  -4.4483  -2.6527  -1.3222  -0.8094
    -0.4694

          k =-0.5000-0.2887 0.0000 (  4108 PWs)   bands (ev):

   -58.9501 -35.3628 -35.0828 -35.0563 -18.8255 -16.0258 -11.8663 -10.4240
    -8.3977  -7.9885  -7.0698  -5.7557  -4.6724  -1.7411  -1.3433  -0.9889
    -0.1409

          k =-0.5000 0.0000 0.0000 (  4102 PWs)   bands (ev):

   -58.9500 -35.2915 -35.1300 -35.0831 -18.8278 -16.0188 -11.8054  -9.9707
    -8.9659  -7.8939  -6.8995  -6.3975  -4.4482  -2.6527  -1.3222  -0.8094
    -0.4694

     the Fermi energy is    -3.7170 ev

!    total energy              =    -161.25572917 Ry
     estimated scf accuracy    <          1.4E-09 Ry
     smearing contrib. (-TS)   =       0.00019031 Ry
     internal energy E=F+TS    =    -161.25591949 Ry

     The total energy is F=E-TS. E is the sum of the following terms:
     one-electron contribution =   -1441.37217944 Ry
     hartree contribution      =     717.85606225 Ry
     xc contribution           =     -29.56089147 Ry
     ewald contribution        =     591.82108917 Ry

     convergence has been achieved in   7 iterations

     negative rho (up, down):  8.530E-05 0.000E+00

     Forces acting on atoms (cartesian axes, Ry/au):

     atom    1 type  2   force =     0.00000000   -0.00000043   -0.00039330
     atom    2 type  3   force =     0.00000000   -0.00000041    0.00069422
     atom    3 type  3   force =     0.00000000    0.00000049    0.00037450
     atom    4 type  1   force =     0.00000000    0.00000034   -0.00067542

     Total force =     0.001110     Total SCF correction =     0.000091


     Computing stress (Cartesian axis) and pressure


     negative rho (up, down):  8.530E-05 0.000E+00
          total   stress  (Ry/bohr**3)                   (kbar)     P=        5.89
   0.00008008   0.00000000   0.00000000           11.78        0.00        0.00
   0.00000000   0.00008013   0.00000000            0.00       11.79        0.00
   0.00000000   0.00000000  -0.00004009            0.00        0.00       -5.90

     Energy error            =      3.6E-05 Ry
     Gradient error          =      6.9E-04 Ry/Bohr

     bfgs converged in   6 scf cycles and   5 bfgs steps
     (criteria: energy <  1.0E-04 Ry, force <  1.0E-03 Ry/Bohr)

     End of BFGS Geometry Optimization

     Final energy             =    -161.2557291727 Ry

     File ./tmp/candidate_NbS2_H.bfgs deleted, as requested
Begin final coordinates

ATOMIC_POSITIONS (angstrom)
Nb               0.0000000000        0.0000034482       -0.0332738004
S                1.6700000000        0.9641594319        1.4630171988
S                1.6700000000        0.9641585157       -1.5925621925
H                1.6700000000        0.9641607615        2.8320582154
End final coordinates



     Writing all to output data dir ./tmp/candidate_NbS2_H.save/ :
     XML data file, charge density, pseudopotentials, collected wavefunctions

     init_run     :      2.11s CPU      2.63s WALL (       1 calls)
     electrons    :     91.64s CPU    119.38s WALL (       6 calls)
     update_pot   :      0.42s CPU      0.45s WALL (       5 calls)
     forces       :      3.75s CPU      4.14s WALL (       6 calls)
     stress       :     29.13s CPU     33.42s WALL (       6 calls)

     Called by init_run:
     wfcinit      :      0.35s CPU      0.37s WALL (       1 calls)
     potinit      :      0.32s CPU      0.37s WALL (       1 calls)
     hinit0       :      1.06s CPU      1.13s WALL (       1 calls)

     Called by electrons:
     c_bands      :     31.61s CPU     32.64s WALL (      58 calls)
     sum_band     :     32.99s CPU     47.45s WALL (      58 calls)
     v_of_rho     :      4.49s CPU      4.71s WALL (      62 calls)
     newd         :     24.40s CPU     37.70s WALL (      62 calls)
     mix_rho      :      0.47s CPU      0.50s WALL (      58 calls)

     Called by c_bands:
     init_us_2    :      1.49s CPU      1.56s WALL (     903 calls)
     cegterg      :     28.66s CPU     29.58s WALL (     406 calls)

     Called by *egterg:
     cdiaghg      :      0.59s CPU      0.61s WALL (    1936 calls)
     h_psi        :     22.95s CPU     23.71s WALL (    1992 calls)
     s_psi        :      1.14s CPU      1.17s WALL (    1992 calls)
     g_psi        :      0.26s CPU      0.27s WALL (    1579 calls)

     Called by h_psi:
     h_psi:calbec :      1.48s CPU      1.53s WALL (    1992 calls)
     vloc_psi     :     20.06s CPU     20.74s WALL (    1992 calls)
                                        0.00s GPU  (    1992 calls)
     add_vuspsi   :      1.26s CPU      1.30s WALL (    1992 calls)

     General routines
     calbec       :      2.64s CPU      2.72s WALL (    3112 calls)
     fft          :      2.57s CPU      2.71s WALL (     951 calls)
     ffts         :      0.29s CPU      0.30s WALL (     120 calls)
     fftw         :     20.14s CPU     20.82s WALL (   45808 calls)
     interpolate  :      0.44s CPU      0.46s WALL (      62 calls)

     Parallel routines

     PWSCF        :   2m 9.21s CPU   2m43.22s WALL


   This run was terminated on:  13: 3:47  10May2026            

=------------------------------------------------------------------------------=
   JOB DONE.
=------------------------------------------------------------------------------=
