
     Program PHONON v.7.5 starts on 10May2026 at 12:56:10 

     This program is part of the open-source Quantum ESPRESSO suite
     for quantum simulation of materials; please cite
         "P. Giannozzi et al., J. Phys.:Condens. Matter 21 395502 (2009);
         "P. Giannozzi et al., J. Phys.:Condens. Matter 29 465901 (2017);
         "P. Giannozzi et al., J. Chem. Phys. 152 154105 (2020);
          URL http://www.quantum-espresso.org", 
     in publications or presentations arising from this work. More details at
     http://www.quantum-espresso.org/quote

     Parallel version (MPI & OpenMP), running on       1 processor cores
     Number of MPI processes:                 1
     Threads/MPI process:                     1

     MPI processes distributed on     1 nodes
     6993 MiB available memory on the printing compute node when the environment starts

     Reading input from candidate_NbS2/04_gamma_phonon_relaxed.in
      Title line not specified: using 'default'.

     Reading xml data from directory:

     ./tmp/candidate_NbS2_relaxed.save/

     Subspace diagonalization in iterative solution of the eigenvalue problem:
     a serial algorithm will be used

     file Nb.pbe-spn-rrkjus_psl.1.0.0.UPF: wavefunction(s)  4S 4P renormalized

     IMPORTANT: XC functional enforced from input :
     Exchange-correlation= PBE
                           (   1   4   3   4   0   0   0)
     Any further DFT definition will be discarded
     Please, verify this is what you really want


     G-vector sticks info
     --------------------
     sticks:   dense  smooth     PW     G-vecs:    dense   smooth      PW
     Sum         769     379    121                92797    32775    5495

     Using Slab Decomposition

 ----2D----2D----2D----2D----2D----2D----2D----2D----2D----2D----2D----2D
  The code is running with the 2D cutoff
  Please refer to:
  Sohier, T., Calandra, M., & Mauri, F. (2017), 
  Density functional perturbation theory for gated two-dimensional heterostructures:
  Theoretical developments and application to flexural phonons in graphene.
  Physical Review B, 96(7), 75448. https://doi.org/10.1103/PhysRevB.96.075448
 ----2D----2D----2D----2D----2D----2D----2D----2D----2D----2D----2D----2D

     negative rho (up, down):  1.058E-04 0.000E+00
     Reading collected, re-writing distributed wavefunctions in ./tmp/

     Number and degeneracy of irreps per q-point
       N         xq(1)         xq(2)         xq(3)   N irreps
       1   0.000000000   0.000000000   0.000000000       9
     No degeneracy

     Calculation of q =    0.0000000   0.0000000   0.0000000

     default                                                                    

     bravais-lattice index     =            0
     lattice parameter (alat)  =       6.3117  a.u.
     unit-cell volume          =    1173.5103 (a.u.)^3
     number of atoms/cell      =            3
     number of atomic types    =            2
     kinetic-energy cut-off    =      35.0000  Ry
     charge density cut-off    =     280.0000  Ry
     convergence threshold     =      1.0E-14
     beta                      =       0.7000
     number of iterations used =            4
     Exchange-correlation= PBE
                           (   1   4   3   4   0   0   0)


     celldm(1)=    6.31169  celldm(2)=    0.00000  celldm(3)=    0.00000
     celldm(4)=    0.00000  celldm(5)=    0.00000  celldm(6)=    0.00000

     crystal axes: (cart. coord. in units of alat)
               a(1) = (  1.0000  0.0000  0.0000 )  
               a(2) = ( -0.5000  0.8660  0.0000 )  
               a(3) = (  0.0000  0.0000  5.3892 )  

     reciprocal axes: (cart. coord. in units 2 pi/alat)
               b(1) = (  1.0000  0.5774 -0.0000 )  
               b(2) = (  0.0000  1.1547  0.0000 )  
               b(3) = (  0.0000 -0.0000  0.1856 )  


     Atoms inside the unit cell: 

     Cartesian axes

     site n.  atom      mass           positions (alat units)
        1  Nb     92.9060   tau(    1) = (    0.00000    0.00000    0.00000  )
        2  S      32.0600   tau(    2) = (    0.50000    0.28867    0.46983  )
        3  S      32.0600   tau(    3) = (    0.50000    0.28867   -0.46983  )

     Computing dynamical matrix for 
                    q = (   0.0000000   0.0000000   0.0000000 )

      5 Sym.Ops. (with q -> -q+G )


     G cutoff =  282.5459  (  92797 G-vectors)     FFT grid: ( 36, 36,192)
     G cutoff =  141.2729  (  32775 G-vectors)  smooth grid: ( 24, 24,135)

     number of k points=     7  Methfessel-Paxton smearing, width (Ry)=  0.0200
                       cart. coord. in units 2pi/alat
        k(    1) = (   0.0000000   0.0000000   0.0000000), wk =   0.1250000
        k(    2) = (   0.0000000   0.2886790   0.0000000), wk =   0.2500000
        k(    3) = (   0.0000000  -0.5773579   0.0000000), wk =   0.1250000
        k(    4) = (   0.2500000   0.1443395   0.0000000), wk =   0.5000000
        k(    5) = (   0.2500000   0.4330184   0.0000000), wk =   0.5000000
        k(    6) = (  -0.5000000  -0.2886790   0.0000000), wk =   0.2500000
        k(    7) = (  -0.5000000   0.0000000   0.0000000), wk =   0.2500000

     PseudoPot. # 1 for Nb read from file:
     ./pseudos/Nb.pbe-spn-rrkjus_psl.1.0.0.UPF
     MD5 check sum: 6ee677a9f002bd3e3657f443f129faad
     Pseudo is Ultrasoft + core correction, Zval = 13.0
     Generated using &quot;atomic&quot; code by A. Dal Corso  v.6.2.2
     Using radial grid of 1227 points,  6 beta functions with: 
                l(1) =   0
                l(2) =   0
                l(3) =   1
                l(4) =   1
                l(5) =   2
                l(6) =   2
     Q(r) pseudized with 0 coefficients 


     PseudoPot. # 2 for S  read from file:
     ./pseudos/S.pbe-n-rrkjus_psl.1.0.0.UPF
     MD5 check sum: 9d0fe39aa2a799ea84730884c9b010f4
     Pseudo is Ultrasoft + core correction, Zval =  6.0
     Generated using &quot;atomic&quot; code by A. Dal Corso  v.6.3
     Using radial grid of 1151 points,  6 beta functions with: 
                l(1) =   0
                l(2) =   0
                l(3) =   1
                l(4) =   1
                l(5) =   2
                l(6) =   2
     Q(r) pseudized with 0 coefficients 


     Mode symmetry, C_2v (mm2)  point group:


     Atomic displacements:
     There are    9 irreducible representations

     Representation     1      1 modes -  To be done

     Representation     2      1 modes -  To be done

     Representation     3      1 modes -  To be done

     Representation     4      1 modes -  To be done

     Representation     5      1 modes -  To be done

     Representation     6      1 modes -  To be done

     Representation     7      1 modes -  To be done

     Representation     8      1 modes -  To be done

     Representation     9      1 modes -  To be done



     Alpha used in Ewald sum =   2.7000

     negative rho (up, down):  1.058E-04 0.000E+00
     PHONON       :     19.65s CPU     19.52s WALL



     Representation #   1 mode #   1

     Self-consistent Calculation

     Pert. #  1: Fermi energy shift (Ry) =    -1.6660E+00     3.3881E-21

      iter #   1 total cpu time :    23.3 secs   av.it.:   7.9
      thresh= 1.000E-02 alpha_mix =  0.700 |ddv_scf|^2 =  3.188E-05

     Pert. #  1: Fermi energy shift (Ry) =     4.5256E+00    -2.6470E-23

      iter #   2 total cpu time :    27.0 secs   av.it.:  13.3
      thresh= 5.647E-04 alpha_mix =  0.700 |ddv_scf|^2 =  2.863E-04

     Pert. #  1: Fermi energy shift (Ry) =    -3.0934E-01     2.6470E-23

      iter #   3 total cpu time :    30.3 secs   av.it.:  11.7
      thresh= 1.692E-03 alpha_mix =  0.700 |ddv_scf|^2 =  2.776E-06

     Pert. #  1: Fermi energy shift (Ry) =     6.7073E-02     6.6174E-24

      iter #   4 total cpu time :    33.8 secs   av.it.:  12.1
      thresh= 1.666E-04 alpha_mix =  0.700 |ddv_scf|^2 =  6.615E-08

     Pert. #  1: Fermi energy shift (Ry) =     1.3425E-03     1.6544E-24

      iter #   5 total cpu time :    36.4 secs   av.it.:  12.4
      thresh= 2.572E-05 alpha_mix =  0.700 |ddv_scf|^2 =  1.608E-09

     Pert. #  1: Fermi energy shift (Ry) =     5.2257E-03     1.6544E-24

      iter #   6 total cpu time :    39.9 secs   av.it.:  13.1
      thresh= 4.011E-06 alpha_mix =  0.700 |ddv_scf|^2 =  1.248E-11

     Pert. #  1: Fermi energy shift (Ry) =     3.9999E-03     1.6544E-24

      iter #   7 total cpu time :    43.6 secs   av.it.:  14.1
      thresh= 3.533E-07 alpha_mix =  0.700 |ddv_scf|^2 =  4.682E-13

     Pert. #  1: Fermi energy shift (Ry) =     3.8235E-03     1.6544E-24

      iter #   8 total cpu time :    47.1 secs   av.it.:  13.1
      thresh= 6.843E-08 alpha_mix =  0.700 |ddv_scf|^2 =  3.251E-14

     Pert. #  1: Fermi energy shift (Ry) =     3.8078E-03     1.6544E-24

      iter #   9 total cpu time :    50.5 secs   av.it.:  13.1
      thresh= 1.803E-08 alpha_mix =  0.700 |ddv_scf|^2 =  3.594E-14

     Pert. #  1: Fermi energy shift (Ry) =     3.7728E-03     1.6544E-24

      iter #  10 total cpu time :    53.9 secs   av.it.:  12.6
      thresh= 1.896E-08 alpha_mix =  0.700 |ddv_scf|^2 =  3.154E-16

     End of self-consistent calculation

     Convergence has been achieved 


     Representation #   2 mode #   2

     Self-consistent Calculation

     Pert. #  1: Fermi energy shift (Ry) =     1.6669E+00     3.3881E-21

      iter #   1 total cpu time :    57.8 secs   av.it.:   7.7
      thresh= 1.000E-02 alpha_mix =  0.700 |ddv_scf|^2 =  3.191E-05

     Pert. #  1: Fermi energy shift (Ry) =    -4.5279E+00     6.6174E-24

      iter #   2 total cpu time :    61.5 secs   av.it.:  13.4
      thresh= 5.649E-04 alpha_mix =  0.700 |ddv_scf|^2 =  2.865E-04

     Pert. #  1: Fermi energy shift (Ry) =     3.0937E-01    -3.3087E-24

      iter #   3 total cpu time :    64.7 secs   av.it.:  11.7
      thresh= 1.693E-03 alpha_mix =  0.700 |ddv_scf|^2 =  2.776E-06

     Pert. #  1: Fermi energy shift (Ry) =    -6.6629E-02     6.6174E-24

      iter #   4 total cpu time :    67.0 secs   av.it.:  11.9
      thresh= 1.666E-04 alpha_mix =  0.700 |ddv_scf|^2 =  6.494E-08

     Pert. #  1: Fermi energy shift (Ry) =    -1.4782E-03     6.6174E-24

      iter #   5 total cpu time :    70.4 secs   av.it.:  12.3
      thresh= 2.548E-05 alpha_mix =  0.700 |ddv_scf|^2 =  1.569E-09

     Pert. #  1: Fermi energy shift (Ry) =    -5.2203E-03     3.3087E-24

      iter #   6 total cpu time :    74.0 secs   av.it.:  13.1
      thresh= 3.961E-06 alpha_mix =  0.700 |ddv_scf|^2 =  1.168E-11

     Pert. #  1: Fermi energy shift (Ry) =    -3.9979E-03     3.3087E-24

      iter #   7 total cpu time :    78.0 secs   av.it.:  14.3
      thresh= 3.417E-07 alpha_mix =  0.700 |ddv_scf|^2 =  4.464E-13

     Pert. #  1: Fermi energy shift (Ry) =    -3.8224E-03     3.3087E-24

      iter #   8 total cpu time :    82.1 secs   av.it.:  13.1
      thresh= 6.681E-08 alpha_mix =  0.700 |ddv_scf|^2 =  3.315E-14

     Pert. #  1: Fermi energy shift (Ry) =    -3.8062E-03     3.3087E-24

      iter #   9 total cpu time :    86.1 secs   av.it.:  13.1
      thresh= 1.821E-08 alpha_mix =  0.700 |ddv_scf|^2 =  3.740E-14

     Pert. #  1: Fermi energy shift (Ry) =    -3.7704E-03     3.3087E-24

      iter #  10 total cpu time :    89.7 secs   av.it.:  12.6
      thresh= 1.934E-08 alpha_mix =  0.700 |ddv_scf|^2 =  3.021E-16

     End of self-consistent calculation

     Convergence has been achieved 


     Representation #   3 mode #   3

     Self-consistent Calculation

     Pert. #  1: Fermi energy shift (Ry) =    -3.2017E-05    -1.6941E-21

      iter #   1 total cpu time :    93.3 secs   av.it.:   8.3
      thresh= 1.000E-02 alpha_mix =  0.700 |ddv_scf|^2 =  7.522E-07

     Pert. #  1: Fermi energy shift (Ry) =    -1.7429E-03     6.6174E-24

      iter #   2 total cpu time :    96.8 secs   av.it.:  14.7
      thresh= 8.673E-05 alpha_mix =  0.700 |ddv_scf|^2 =  6.537E-08

     Pert. #  1: Fermi energy shift (Ry) =     5.1218E-03     1.3235E-23

      iter #   3 total cpu time :   100.9 secs   av.it.:  14.9
      thresh= 2.557E-05 alpha_mix =  0.700 |ddv_scf|^2 =  1.984E-09

     Pert. #  1: Fermi energy shift (Ry) =    -2.0652E-02     1.3235E-23

      iter #   4 total cpu time :   104.8 secs   av.it.:  14.7
      thresh= 4.454E-06 alpha_mix =  0.700 |ddv_scf|^2 =  6.507E-09

     Pert. #  1: Fermi energy shift (Ry) =     4.4447E-03     1.3235E-23

      iter #   5 total cpu time :   108.9 secs   av.it.:  12.1
      thresh= 8.066E-06 alpha_mix =  0.700 |ddv_scf|^2 =  3.366E-10

     Pert. #  1: Fermi energy shift (Ry) =    -7.5396E-05     1.3235E-23

      iter #   6 total cpu time :   111.3 secs   av.it.:  13.4
      thresh= 1.835E-06 alpha_mix =  0.700 |ddv_scf|^2 =  3.093E-13

     Pert. #  1: Fermi energy shift (Ry) =     1.9963E-05     1.3235E-23

      iter #   7 total cpu time :   115.2 secs   av.it.:  14.7
      thresh= 5.561E-08 alpha_mix =  0.700 |ddv_scf|^2 =  2.757E-14

     Pert. #  1: Fermi energy shift (Ry) =    -3.8078E-05     1.3235E-23

      iter #   8 total cpu time :   119.1 secs   av.it.:  14.7
      thresh= 1.660E-08 alpha_mix =  0.700 |ddv_scf|^2 =  2.870E-14

     Pert. #  1: Fermi energy shift (Ry) =     4.4394E-06     1.3235E-23

      iter #   9 total cpu time :   122.9 secs   av.it.:  12.7
      thresh= 1.694E-08 alpha_mix =  0.700 |ddv_scf|^2 =  2.234E-15

     End of self-consistent calculation

     Convergence has been achieved 


     Representation #   4 mode #   4

     Self-consistent Calculation

     Pert. #  1: Fermi energy shift (Ry) =     0.0000E+00     0.0000E+00

      iter #   1 total cpu time :   126.7 secs   av.it.:   6.4
      thresh= 1.000E-02 alpha_mix =  0.700 |ddv_scf|^2 =  5.541E-08

     Pert. #  1: Fermi energy shift (Ry) =     0.0000E+00     0.0000E+00

      iter #   2 total cpu time :   130.5 secs   av.it.:  13.9
      thresh= 2.354E-05 alpha_mix =  0.700 |ddv_scf|^2 =  4.572E-09

     Pert. #  1: Fermi energy shift (Ry) =     0.0000E+00     0.0000E+00

      iter #   3 total cpu time :   134.2 secs   av.it.:  13.7
      thresh= 6.762E-06 alpha_mix =  0.700 |ddv_scf|^2 =  1.491E-10

     Pert. #  1: Fermi energy shift (Ry) =     0.0000E+00     0.0000E+00

      iter #   4 total cpu time :   137.7 secs   av.it.:  12.4
      thresh= 1.221E-06 alpha_mix =  0.700 |ddv_scf|^2 =  3.525E-14

     Pert. #  1: Fermi energy shift (Ry) =     0.0000E+00     0.0000E+00

      iter #   5 total cpu time :   141.3 secs   av.it.:  13.4
      thresh= 1.878E-08 alpha_mix =  0.700 |ddv_scf|^2 =  1.239E-15

     End of self-consistent calculation

     Convergence has been achieved 


     Representation #   5 mode #   5

     Self-consistent Calculation

     Pert. #  1: Fermi energy shift (Ry) =     0.0000E+00     0.0000E+00

      iter #   1 total cpu time :   145.1 secs   av.it.:   6.6
      thresh= 1.000E-02 alpha_mix =  0.700 |ddv_scf|^2 =  7.041E-08

     Pert. #  1: Fermi energy shift (Ry) =     0.0000E+00     0.0000E+00

      iter #   2 total cpu time :   148.8 secs   av.it.:  14.4
      thresh= 2.653E-05 alpha_mix =  0.700 |ddv_scf|^2 =  8.202E-09

     Pert. #  1: Fermi energy shift (Ry) =     0.0000E+00     0.0000E+00

      iter #   3 total cpu time :   152.7 secs   av.it.:  14.6
      thresh= 9.057E-06 alpha_mix =  0.700 |ddv_scf|^2 =  2.122E-10

     Pert. #  1: Fermi energy shift (Ry) =     0.0000E+00     0.0000E+00

      iter #   4 total cpu time :   156.6 secs   av.it.:  13.3
      thresh= 1.457E-06 alpha_mix =  0.700 |ddv_scf|^2 =  2.747E-12

     Pert. #  1: Fermi energy shift (Ry) =     0.0000E+00     0.0000E+00

      iter #   5 total cpu time :   158.9 secs   av.it.:  14.1
      thresh= 1.657E-07 alpha_mix =  0.700 |ddv_scf|^2 =  9.524E-15

     End of self-consistent calculation

     Convergence has been achieved 


     Representation #   6 mode #   6

     Self-consistent Calculation

     Pert. #  1: Fermi energy shift (Ry) =     0.0000E+00     0.0000E+00

      iter #   1 total cpu time :   162.5 secs   av.it.:   8.3
      thresh= 1.000E-02 alpha_mix =  0.700 |ddv_scf|^2 =  7.465E-07

     Pert. #  1: Fermi energy shift (Ry) =     0.0000E+00     0.0000E+00

      iter #   2 total cpu time :   166.4 secs   av.it.:  14.4
      thresh= 8.640E-05 alpha_mix =  0.700 |ddv_scf|^2 =  6.503E-08

     Pert. #  1: Fermi energy shift (Ry) =     0.0000E+00     0.0000E+00

      iter #   3 total cpu time :   170.6 secs   av.it.:  14.4
      thresh= 2.550E-05 alpha_mix =  0.700 |ddv_scf|^2 =  1.505E-09

     Pert. #  1: Fermi energy shift (Ry) =     0.0000E+00     0.0000E+00

      iter #   4 total cpu time :   174.3 secs   av.it.:  13.9
      thresh= 3.879E-06 alpha_mix =  0.700 |ddv_scf|^2 =  6.164E-11

     Pert. #  1: Fermi energy shift (Ry) =     0.0000E+00     0.0000E+00

      iter #   5 total cpu time :   178.1 secs   av.it.:  14.3
      thresh= 7.851E-07 alpha_mix =  0.700 |ddv_scf|^2 =  3.164E-13

     Pert. #  1: Fermi energy shift (Ry) =     0.0000E+00     0.0000E+00

      iter #   6 total cpu time :   181.6 secs   av.it.:  14.6
      thresh= 5.625E-08 alpha_mix =  0.700 |ddv_scf|^2 =  1.661E-15

     End of self-consistent calculation

     Convergence has been achieved 


     Representation #   7 mode #   7

     Self-consistent Calculation

     Pert. #  1: Fermi energy shift (Ry) =     0.0000E+00     0.0000E+00

      iter #   1 total cpu time :   185.2 secs   av.it.:   7.6
      thresh= 1.000E-02 alpha_mix =  0.700 |ddv_scf|^2 =  5.378E-04

     Pert. #  1: Fermi energy shift (Ry) =     0.0000E+00     0.0000E+00

      iter #   2 total cpu time :   188.4 secs   av.it.:  11.9
      thresh= 2.319E-03 alpha_mix =  0.700 |ddv_scf|^2 =  2.828E-02

     Pert. #  1: Fermi energy shift (Ry) =     0.0000E+00     0.0000E+00

      iter #   3 total cpu time :   190.6 secs   av.it.:   9.6
      thresh= 1.000E-02 alpha_mix =  0.700 |ddv_scf|^2 =  2.280E-05

     Pert. #  1: Fermi energy shift (Ry) =     0.0000E+00     0.0000E+00

      iter #   4 total cpu time :   193.5 secs   av.it.:  10.6
      thresh= 4.775E-04 alpha_mix =  0.700 |ddv_scf|^2 =  5.243E-06

     Pert. #  1: Fermi energy shift (Ry) =     0.0000E+00     0.0000E+00

      iter #   5 total cpu time :   196.3 secs   av.it.:  10.0
      thresh= 2.290E-04 alpha_mix =  0.700 |ddv_scf|^2 =  3.878E-10

     Pert. #  1: Fermi energy shift (Ry) =     0.0000E+00     0.0000E+00

      iter #   6 total cpu time :   199.6 secs   av.it.:  12.1
      thresh= 1.969E-06 alpha_mix =  0.700 |ddv_scf|^2 =  3.069E-10

     Pert. #  1: Fermi energy shift (Ry) =     0.0000E+00     0.0000E+00

      iter #   7 total cpu time :   202.6 secs   av.it.:  11.0
      thresh= 1.752E-06 alpha_mix =  0.700 |ddv_scf|^2 =  4.970E-11

     Pert. #  1: Fermi energy shift (Ry) =     0.0000E+00     0.0000E+00

      iter #   8 total cpu time :   205.4 secs   av.it.:  10.4
      thresh= 7.050E-07 alpha_mix =  0.700 |ddv_scf|^2 =  1.621E-12

     Pert. #  1: Fermi energy shift (Ry) =     0.0000E+00     0.0000E+00

      iter #   9 total cpu time :   208.3 secs   av.it.:   9.9
      thresh= 1.273E-07 alpha_mix =  0.700 |ddv_scf|^2 =  4.032E-15

     End of self-consistent calculation

     Convergence has been achieved 


     Representation #   8 mode #   8

     Self-consistent Calculation

     Pert. #  1: Fermi energy shift (Ry) =     0.0000E+00     0.0000E+00

      iter #   1 total cpu time :   212.1 secs   av.it.:   9.3
      thresh= 1.000E-02 alpha_mix =  0.700 |ddv_scf|^2 =  2.839E-03

     Pert. #  1: Fermi energy shift (Ry) =     0.0000E+00     0.0000E+00

      iter #   2 total cpu time :   215.3 secs   av.it.:  11.9
      thresh= 5.329E-03 alpha_mix =  0.700 |ddv_scf|^2 =  1.632E-01

     Pert. #  1: Fermi energy shift (Ry) =     0.0000E+00     0.0000E+00

      iter #   3 total cpu time :   218.3 secs   av.it.:  10.9
      thresh= 1.000E-02 alpha_mix =  0.700 |ddv_scf|^2 =  9.975E-06

     Pert. #  1: Fermi energy shift (Ry) =     0.0000E+00     0.0000E+00

      iter #   4 total cpu time :   221.6 secs   av.it.:  12.1
      thresh= 3.158E-04 alpha_mix =  0.700 |ddv_scf|^2 =  9.421E-06

     Pert. #  1: Fermi energy shift (Ry) =     0.0000E+00     0.0000E+00

      iter #   5 total cpu time :   223.4 secs   av.it.:  10.6
      thresh= 3.069E-04 alpha_mix =  0.700 |ddv_scf|^2 =  1.782E-07

     Pert. #  1: Fermi energy shift (Ry) =     0.0000E+00     0.0000E+00

      iter #   6 total cpu time :   226.1 secs   av.it.:  10.3
      thresh= 4.222E-05 alpha_mix =  0.700 |ddv_scf|^2 =  3.095E-08

     Pert. #  1: Fermi energy shift (Ry) =     0.0000E+00     0.0000E+00

      iter #   7 total cpu time :   229.1 secs   av.it.:   9.9
      thresh= 1.759E-05 alpha_mix =  0.700 |ddv_scf|^2 =  3.662E-11

     Pert. #  1: Fermi energy shift (Ry) =     0.0000E+00     0.0000E+00

      iter #   8 total cpu time :   232.0 secs   av.it.:  10.3
      thresh= 6.051E-07 alpha_mix =  0.700 |ddv_scf|^2 =  6.896E-13

     Pert. #  1: Fermi energy shift (Ry) =     0.0000E+00     0.0000E+00

      iter #   9 total cpu time :   234.9 secs   av.it.:  10.3
      thresh= 8.304E-08 alpha_mix =  0.700 |ddv_scf|^2 =  3.778E-14

     Pert. #  1: Fermi energy shift (Ry) =     0.0000E+00     0.0000E+00

      iter #  10 total cpu time :   237.8 secs   av.it.:  10.1
      thresh= 1.944E-08 alpha_mix =  0.700 |ddv_scf|^2 =  2.238E-15

     End of self-consistent calculation

     Convergence has been achieved 


     Representation #   9 mode #   9

     Self-consistent Calculation

     Pert. #  1: Fermi energy shift (Ry) =     6.6174E-24    -1.8367E-40

      iter #   1 total cpu time :   241.4 secs   av.it.:   6.9
      thresh= 1.000E-02 alpha_mix =  0.700 |ddv_scf|^2 =  6.073E-05

     Pert. #  1: Fermi energy shift (Ry) =    -2.6470E-23     9.1835E-41

      iter #   2 total cpu time :   244.7 secs   av.it.:  12.1
      thresh= 7.793E-04 alpha_mix =  0.700 |ddv_scf|^2 =  3.189E-03

     Pert. #  1: Fermi energy shift (Ry) =     1.3235E-23     1.4694E-39

      iter #   3 total cpu time :   247.5 secs   av.it.:   8.9
      thresh= 5.647E-03 alpha_mix =  0.700 |ddv_scf|^2 =  2.620E-06

     Pert. #  1: Fermi energy shift (Ry) =     6.6174E-24    -3.6734E-40

      iter #   4 total cpu time :   250.6 secs   av.it.:  11.0
      thresh= 1.619E-04 alpha_mix =  0.700 |ddv_scf|^2 =  5.732E-07

     Pert. #  1: Fermi energy shift (Ry) =     6.6174E-24    -3.6734E-40

      iter #   5 total cpu time :   252.6 secs   av.it.:  10.0
      thresh= 7.571E-05 alpha_mix =  0.700 |ddv_scf|^2 =  3.735E-10

     Pert. #  1: Fermi energy shift (Ry) =     6.6174E-24    -9.1835E-41

      iter #   6 total cpu time :   256.5 secs   av.it.:  12.4
      thresh= 1.933E-06 alpha_mix =  0.700 |ddv_scf|^2 =  6.521E-12

     Pert. #  1: Fermi energy shift (Ry) =     6.6174E-24    -9.1835E-41

      iter #   7 total cpu time :   260.0 secs   av.it.:  13.1
      thresh= 2.554E-07 alpha_mix =  0.700 |ddv_scf|^2 =  1.973E-13

     Pert. #  1: Fermi energy shift (Ry) =     6.6174E-24    -9.1835E-41

      iter #   8 total cpu time :   263.2 secs   av.it.:  12.4
      thresh= 4.441E-08 alpha_mix =  0.700 |ddv_scf|^2 =  2.307E-13

     Pert. #  1: Fermi energy shift (Ry) =     6.6174E-24    -9.1835E-41

      iter #   9 total cpu time :   266.3 secs   av.it.:  10.4
      thresh= 4.803E-08 alpha_mix =  0.700 |ddv_scf|^2 =  7.737E-17

     End of self-consistent calculation

     Convergence has been achieved 

     Number of q in the star =    1
     List of q in the star:
          1   0.000000000   0.000000000   0.000000000

     Diagonalizing the dynamical matrix

     q = (    0.000000000   0.000000000   0.000000000 ) 

 **************************************************************************
     freq (    1) =       0.627528 [THz] =      20.932096 [cm-1]
     freq (    2) =       0.636567 [THz] =      21.233584 [cm-1]
     freq (    3) =       0.695251 [THz] =      23.191093 [cm-1]
     freq (    4) =       6.009235 [THz] =     200.446510 [cm-1]
     freq (    5) =       6.012298 [THz] =     200.548675 [cm-1]
     freq (    6) =       7.238981 [THz] =     241.466423 [cm-1]
     freq (    7) =       7.248089 [THz] =     241.770238 [cm-1]
     freq (    8) =      10.460176 [THz] =     348.913909 [cm-1]
     freq (    9) =      11.422492 [THz] =     381.013311 [cm-1]
 **************************************************************************

     Mode symmetry, C_2v (mm2)  point group:

     freq (   1-   1) =         20.9  [cm-1]   --> B_2  D_4  S_4   I+R
     freq (   2-   2) =         21.2  [cm-1]   --> A_1  D_1  S_1   I+R
     freq (   3-   3) =         23.2  [cm-1]   --> B_1  D_3  S_3   I+R
     freq (   4-   4) =        200.4  [cm-1]   --> B_2  D_4  S_4   I+R
     freq (   5-   5) =        200.5  [cm-1]   --> A_2  D_2  S_2   R  
     freq (   6-   6) =        241.5  [cm-1]   --> A_1  D_1  S_1   I+R
     freq (   7-   7) =        241.8  [cm-1]   --> B_1  D_3  S_3   I+R
     freq (   8-   8) =        348.9  [cm-1]   --> A_1  D_1  S_1   I+R
     freq (   9-   9) =        381.0  [cm-1]   --> B_2  D_4  S_4   I+R

     PHONON       :   4m22.43s CPU   4m26.48s WALL

     INITIALIZATION: 
     phq_setup    :      0.37s CPU      0.43s WALL (       1 calls)
     phq_init     :     17.64s CPU     16.94s WALL (       1 calls)

     phq_init     :     17.64s CPU     16.94s WALL (       1 calls)
     set_drhoc    :      0.00s CPU      0.01s WALL (       3 calls)
     init_vloc    :      0.06s CPU      0.06s WALL (       1 calls)
     init_us_1    :      0.29s CPU      0.30s WALL (       1 calls)
     init_us_2    :      1.06s CPU      1.19s WALL (     721 calls)
     newd         :      0.38s CPU      0.74s WALL (       1 calls)
     dvanqq       :      8.24s CPU      7.14s WALL (       1 calls)
     drho         :      9.00s CPU      9.37s WALL (       1 calls)
     drhous       :      1.54s CPU      1.62s WALL (       1 calls)
     nldyntot     :      0.01s CPU      0.02s WALL (       1 calls)

     DYNAMICAL MATRIX:
     dynmat0      :      0.36s CPU      0.39s WALL (       1 calls)
     dynmat_us    :      0.19s CPU      0.20s WALL (       1 calls)
     addusdynmat  :      0.00s CPU      0.00s WALL (       1 calls)
     d2ionq       :      0.06s CPU      0.06s WALL (       1 calls)
     dynmatcc     :      0.11s CPU      0.13s WALL (       1 calls)
     phqscf       :    242.77s CPU    246.95s WALL (       1 calls)
     dynmatrix    :      0.00s CPU      0.00s WALL (       1 calls)

     phqscf       :    242.77s CPU    246.95s WALL (       1 calls)
     solve_linter :    242.21s CPU    246.32s WALL (       9 calls)
     dfpt_kernel  :    239.85s CPU    243.69s WALL (       9 calls)
     sth_kernel   :    137.97s CPU    140.42s WALL (      73 calls)
     h_prec       :      0.11s CPU      0.12s WALL (     511 calls)
     apply_dpot_b :      5.78s CPU      6.10s WALL (     448 calls)
     ortho        :      1.42s CPU      1.49s WALL (     511 calls)
     cgsolve      :    120.44s CPU    121.90s WALL (     511 calls)
     incdrhoscf   :      8.02s CPU      8.42s WALL (     511 calls)
                                        0.00s GPU  (     511 calls)
     addusddens   :     51.94s CPU     51.62s WALL (      82 calls)
     dv_of_drho   :      3.62s CPU      4.91s WALL (      73 calls)
     mix_pot      :      0.41s CPU      1.33s WALL (      73 calls)
     ef_shift     :      0.34s CPU      0.40s WALL (      73 calls)
     ef_shift_wfc :      0.01s CPU      0.03s WALL (       9 calls)
     localdos     :      5.72s CPU      6.00s WALL (       9 calls)
     drhodv       :      0.56s CPU      0.59s WALL (       9 calls)
     psymdvscf    :      1.74s CPU      1.78s WALL (      73 calls)
     newdq        :     44.77s CPU     43.86s WALL (      73 calls)
     adddvscf     :      0.98s CPU      1.02s WALL (     448 calls)
     com_dvloc    :      0.21s CPU      0.22s WALL (     153 calls)
                                        0.00s GPU  (     153 calls)
     addcore      :      0.39s CPU      0.43s WALL (      99 calls)
                                        0.00s GPU  (      99 calls)
     drhodvus     :      0.03s CPU      0.10s WALL (       9 calls)

     dvqpsi_us    :      1.43s CPU      1.50s WALL (      63 calls)
                                        0.00s GPU  (      63 calls)
     dvqpsi_us_on :      0.27s CPU      0.28s WALL (      63 calls)

     add_vuspsi   :      5.70s CPU      5.91s WALL (   11406 calls)
     addusdbec    :      0.68s CPU      0.71s WALL (     574 calls)

     drhodvus     :      0.03s CPU      0.10s WALL (       9 calls)

      General routines
     calbec       :     14.08s CPU     14.63s WALL (   24282 calls)
     fft          :      4.02s CPU      4.30s WALL (    1474 calls)
     ffts         :      1.01s CPU      1.05s WALL (    1128 calls)
     fftw         :     81.21s CPU     81.55s WALL (  190291 calls)
     davcio       :      0.64s CPU      1.54s WALL (    3183 calls)
     write_rec    :      0.07s CPU      0.32s WALL (      82 calls)

      Additional routines
     ch_psi       :    116.15s CPU    117.45s WALL (   11406 calls)
     last         :     16.57s CPU     17.13s WALL (   11406 calls)
     Hesh         :      0.83s CPU      0.86s WALL (   11406 calls)
     ch_psi_all_k :     15.70s CPU     16.23s WALL (   11406 calls)
                                        0.00s GPU  (   11406 calls)
     ch_psi_calbe :      5.85s CPU      6.04s WALL (   11406 calls)
                                        0.00s GPU  (   11406 calls)
     h_psi_bgrp   :     93.36s CPU     93.90s WALL (   11406 calls)
     h_psi        :     93.35s CPU     93.89s WALL (   11406 calls)
     h_psi:pot    :     92.81s CPU     93.33s WALL (   11406 calls)
     h_psi:calbec :      6.74s CPU      6.97s WALL (   11406 calls)
     s_psi_bgrp   :     11.36s CPU     11.75s WALL (   23323 calls)
     s_psi        :     10.42s CPU     10.79s WALL (   23323 calls)


     PHONON       :   4m22.43s CPU   4m26.48s WALL


   This run was terminated on:  13: 0:36  10May2026            

=------------------------------------------------------------------------------=
   JOB DONE.
=------------------------------------------------------------------------------=
