
     Program PWSCF v.7.5 starts on 11May2026 at  2:50:45 

     This program is part of the open-source Quantum ESPRESSO suite
     for quantum simulation of materials; please cite
         "P. Giannozzi et al., J. Phys.:Condens. Matter 21 395502 (2009);
         "P. Giannozzi et al., J. Phys.:Condens. Matter 29 465901 (2017);
         "P. Giannozzi et al., J. Chem. Phys. 152 154105 (2020);
          URL http://www.quantum-espresso.org", 
     in publications or presentations arising from this work. More details at
     http://www.quantum-espresso.org/quote

     Parallel version (MPI & OpenMP), running on      16 processor cores
     Number of MPI processes:                 1
     Threads/MPI process:                    16

     MPI processes distributed on     1 nodes
     6994 MiB available memory on the printing compute node when the environment starts

     Reading input from /root/qe_work_expanded/candidate_05_VNSe/01_relax.in
Warning: card &CELL ignored
Warning: card   CELL_DOFREE = '2DXY', ignored

     Current dimensions of program PWSCF are:
     Max number of different atomic species (ntypx) = 10
     Max number of k-points (npk) =  40000
     Max angular momentum in pseudopotentials (lmaxx) =  4
     file V.pbe-spnl-rrkjus_psl.1.0.0.UPF: wavefunction(s)  3P 3D renormalized
     Message from routine setup:
     using ibrav=0 with symmetry is DISCOURAGED, use correct ibrav instead

     Subspace diagonalization in iterative solution of the eigenvalue problem:
     a serial algorithm will be used


     G-vector sticks info
     --------------------
     sticks:   dense  smooth     PW     G-vecs:    dense   smooth      PW
     Sum        1069     547    163               130573    46155    7371

     Using Slab Decomposition



     bravais-lattice index     =            0
     lattice parameter (alat)  =       7.4886  a.u.
     unit-cell volume          =    1651.9793 (a.u.)^3
     number of atoms/cell      =            3
     number of atomic types    =            3
     number of electrons       =        24.00
     number of Kohn-Sham states=           16
     kinetic-energy cutoff     =      35.0000  Ry
     charge density cutoff     =     280.0000  Ry
     scf convergence threshold =      1.0E-07
     mixing beta               =       0.3500
     number of iterations used =            8  plain     mixing
     energy convergence thresh.=      1.0E-04
     force convergence thresh. =      1.0E-03
     Exchange-correlation= PBE
                           (   1   4   3   4   0   0   0)
     nstep                     =           50


     celldm(1)=   7.488611  celldm(2)=   0.000000  celldm(3)=   0.000000
     celldm(4)=   0.000000  celldm(5)=   0.000000  celldm(6)=   0.000000

     crystal axes: (cart. coord. in units of alat)
               a(1) = (   1.000000   0.000000   0.000000 )  
               a(2) = (  -0.500000   0.866025   0.000000 )  
               a(3) = (   0.000000   0.000000   4.542240 )  

     reciprocal axes: (cart. coord. in units 2 pi/alat)
               b(1) = (  1.000000  0.577350 -0.000000 )  
               b(2) = (  0.000000  1.154701  0.000000 )  
               b(3) = (  0.000000 -0.000000  0.220156 )  


     PseudoPot. # 1 for N  read from file:
     ./pseudos/N.pbe-n-rrkjus_psl.1.0.0.UPF
     MD5 check sum: ada94e3ed05223de5319d0572dc76806
     Pseudo is Ultrasoft + core correction, Zval =  5.0
     Generated using &quot;atomic&quot; code by A. Dal Corso  v.6.3MaX
     Using radial grid of 1085 points,  4 beta functions with: 
                l(1) =   0
                l(2) =   0
                l(3) =   1
                l(4) =   1
     Q(r) pseudized with 0 coefficients 


     PseudoPot. # 2 for Se read from file:
     ./pseudos/Se.pbe-n-rrkjus_psl.1.0.0.UPF
     MD5 check sum: 8e2a6847b5cb9faee9497ebb573e71ea
     Pseudo is Ultrasoft + core correction, Zval =  6.0
     Generated using &quot;atomic&quot; code by A. Dal Corso  v.6.3
     Using radial grid of 1211 points,  4 beta functions with: 
                l(1) =   0
                l(2) =   0
                l(3) =   1
                l(4) =   1
     Q(r) pseudized with 0 coefficients 


     PseudoPot. # 3 for V  read from file:
     ./pseudos/V.pbe-spnl-rrkjus_psl.1.0.0.UPF
     MD5 check sum: 79b3eb63147daf0b665d9f1bcc691206
     Pseudo is Ultrasoft + core correction, Zval = 13.0
     Generated using &quot;atomic&quot; code by A. Dal Corso  v.6.2.2
     Using radial grid of 1181 points,  6 beta functions with: 
                l(1) =   0
                l(2) =   0
                l(3) =   1
                l(4) =   1
                l(5) =   2
                l(6) =   2
     Q(r) pseudized with 0 coefficients 


     atomic species   valence    mass     pseudopotential
     N                 5.00    14.00700     N ( 1.00)
     Se                6.00    78.97100     Se( 1.00)
     V                13.00    50.94200     V ( 1.00)

      6 Sym. Ops. (no inversion) found



   Cartesian axes

     site n.     atom                  positions (alat units)
         1        V      tau(   1) = (   0.0000000   0.0000000   0.0000000  )
         2        Se     tau(   2) = (   0.5000000   0.2886751   0.3662853  )
         3        N      tau(   3) = (   0.5000000   0.2886751  -0.3662853  )

     number of k points=     4  Methfessel-Paxton smearing, width (Ry)=  0.0200
                       cart. coord. in units 2pi/alat
        k(    1) = (   0.0000000   0.0000000   0.0000000), wk =   0.1250000
        k(    2) = (   0.0000000   0.2886751   0.0000000), wk =   0.7500000
        k(    3) = (   0.0000000  -0.5773503   0.0000000), wk =   0.3750000
        k(    4) = (   0.2500000   0.4330127   0.0000000), wk =   0.7500000

     Dense  grid:   130573 G-vectors     FFT dimensions: (  40,  40, 192)

     Smooth grid:    46155 G-vectors     FFT dimensions: (  30,  30, 135)

     Estimated max dynamical RAM per process >     497.26 MB
 ----2D----2D----2D----2D----2D----2D----2D----2D----2D----2D----2D----2D
  The code is running with the 2D cutoff
  Please refer to:
  Sohier, T., Calandra, M., & Mauri, F. (2017), 
  Density functional perturbation theory for gated two-dimensional heterostructures:
  Theoretical developments and application to flexural phonons in graphene.
  Physical Review B, 96(7), 75448. https://doi.org/10.1103/PhysRevB.96.075448
 ----2D----2D----2D----2D----2D----2D----2D----2D----2D----2D----2D----2D

     Check: negative core charge=   -0.000005

     Initial potential from superposition of free atoms

     starting charge      23.9990, renormalised to      24.0000

     negative rho (up, down):  2.652E-03 0.000E+00
     Starting wfcs are   18 randomized atomic wfcs

     total cpu time spent up to now is        3.2 secs

     per-process dynamical memory:    99.5 Mb

     Self-consistent Calculation

     iteration #  1     ecut=    35.00 Ry     beta= 0.35
     Davidson diagonalization with overlap
     ethr =  1.00E-02,  avg # of iterations =  1.8

     negative rho (up, down):  1.968E-03 0.000E+00

     total cpu time spent up to now is        7.4 secs

     total energy              =    -184.54725666 Ry
     estimated scf accuracy    <       3.66095669 Ry

     iteration #  2     ecut=    35.00 Ry     beta= 0.35
     Davidson diagonalization with overlap
     ethr =  1.00E-02,  avg # of iterations =  5.0

     negative rho (up, down):  4.815E-03 0.000E+00

     total cpu time spent up to now is       15.1 secs

     total energy              =    -185.27839957 Ry
     estimated scf accuracy    <      37.07768042 Ry

     iteration #  3     ecut=    35.00 Ry     beta= 0.35
     Davidson diagonalization with overlap
     ethr =  1.00E-02,  avg # of iterations =  2.2

     negative rho (up, down):  1.100E-02 0.000E+00

     total cpu time spent up to now is       20.3 secs

     total energy              =    -186.14624601 Ry
     estimated scf accuracy    <       9.61938204 Ry

     iteration #  4     ecut=    35.00 Ry     beta= 0.35
     Davidson diagonalization with overlap
     ethr =  1.00E-02,  avg # of iterations =  2.2

     negative rho (up, down):  1.077E-02 0.000E+00

     total cpu time spent up to now is       24.7 secs

     total energy              =    -186.19517454 Ry
     estimated scf accuracy    <       3.14881720 Ry

     iteration #  5     ecut=    35.00 Ry     beta= 0.35
     Davidson diagonalization with overlap
     ethr =  1.00E-02,  avg # of iterations =  1.5

     negative rho (up, down):  9.399E-03 0.000E+00

     total cpu time spent up to now is       28.4 secs

     total energy              =    -186.19513978 Ry
     estimated scf accuracy    <       1.37571198 Ry

     iteration #  6     ecut=    35.00 Ry     beta= 0.35
     Davidson diagonalization with overlap
     ethr =  5.73E-03,  avg # of iterations =  4.0

     negative rho (up, down):  5.357E-03 0.000E+00

     total cpu time spent up to now is       34.4 secs

     total energy              =    -186.32316733 Ry
     estimated scf accuracy    <       0.46663732 Ry

     iteration #  7     ecut=    35.00 Ry     beta= 0.35
     Davidson diagonalization with overlap
     ethr =  1.94E-03,  avg # of iterations =  1.5

     negative rho (up, down):  5.758E-03 0.000E+00

     total cpu time spent up to now is       38.5 secs

     total energy              =    -186.40082348 Ry
     estimated scf accuracy    <       0.81977881 Ry

     iteration #  8     ecut=    35.00 Ry     beta= 0.35
     Davidson diagonalization with overlap
     ethr =  1.94E-03,  avg # of iterations =  1.0

     negative rho (up, down):  6.288E-03 0.000E+00

     total cpu time spent up to now is       41.7 secs

     total energy              =    -186.38466220 Ry
     estimated scf accuracy    <       0.65165199 Ry

     iteration #  9     ecut=    35.00 Ry     beta= 0.35
     Davidson diagonalization with overlap
     ethr =  1.94E-03,  avg # of iterations =  1.0

     negative rho (up, down):  6.045E-03 0.000E+00

     total cpu time spent up to now is       45.4 secs

     total energy              =    -186.38616022 Ry
     estimated scf accuracy    <       0.19388676 Ry

     iteration # 10     ecut=    35.00 Ry     beta= 0.35
     Davidson diagonalization with overlap
     ethr =  8.08E-04,  avg # of iterations =  3.5

     negative rho (up, down):  3.991E-03 0.000E+00

     total cpu time spent up to now is       51.8 secs

     total energy              =    -186.40394162 Ry
     estimated scf accuracy    <       0.00325093 Ry

     iteration # 11     ecut=    35.00 Ry     beta= 0.35
     Davidson diagonalization with overlap
     ethr =  1.35E-05,  avg # of iterations =  6.0

     negative rho (up, down):  3.910E-03 0.000E+00

     total cpu time spent up to now is       59.3 secs

     total energy              =    -186.40492294 Ry
     estimated scf accuracy    <       0.00432109 Ry

     iteration # 12     ecut=    35.00 Ry     beta= 0.35
     Davidson diagonalization with overlap
     ethr =  1.35E-05,  avg # of iterations =  1.0

     negative rho (up, down):  8.508E-03 0.000E+00

     total cpu time spent up to now is       63.4 secs

     total energy              =    -186.40591239 Ry
     estimated scf accuracy    <       0.00541397 Ry

     iteration # 13     ecut=    35.00 Ry     beta= 0.35
     Davidson diagonalization with overlap
     ethr =  1.35E-05,  avg # of iterations =  1.8

     negative rho (up, down):  2.959E-03 0.000E+00

     total cpu time spent up to now is       67.7 secs

     total energy              =    -186.40370317 Ry
     estimated scf accuracy    <       0.01662624 Ry

     iteration # 14     ecut=    35.00 Ry     beta= 0.35
     Davidson diagonalization with overlap
     ethr =  1.35E-05,  avg # of iterations =  2.0

     negative rho (up, down):  3.282E-03 0.000E+00

     total cpu time spent up to now is       73.6 secs

     total energy              =    -186.40455676 Ry
     estimated scf accuracy    <       0.00113744 Ry

     iteration # 15     ecut=    35.00 Ry     beta= 0.35
     Davidson diagonalization with overlap
     ethr =  4.74E-06,  avg # of iterations =  1.0

     negative rho (up, down):  3.438E-03 0.000E+00

     total cpu time spent up to now is       77.3 secs

     total energy              =    -186.40461678 Ry
     estimated scf accuracy    <       0.00015629 Ry

     iteration # 16     ecut=    35.00 Ry     beta= 0.35
     Davidson diagonalization with overlap
     ethr =  6.51E-07,  avg # of iterations =  5.0

     negative rho (up, down):  3.114E-03 0.000E+00

     total cpu time spent up to now is       85.2 secs

     total energy              =    -186.40461460 Ry
     estimated scf accuracy    <       0.00088040 Ry

     iteration # 17     ecut=    35.00 Ry     beta= 0.35
     Davidson diagonalization with overlap
     ethr =  6.51E-07,  avg # of iterations =  2.0

     negative rho (up, down):  2.993E-03 0.000E+00

     total cpu time spent up to now is       89.8 secs

     total energy              =    -186.40463158 Ry
     estimated scf accuracy    <       0.00037196 Ry

     iteration # 18     ecut=    35.00 Ry     beta= 0.35
     Davidson diagonalization with overlap
     ethr =  6.51E-07,  avg # of iterations =  1.0

     negative rho (up, down):  2.947E-03 0.000E+00

     total cpu time spent up to now is       93.4 secs

     total energy              =    -186.40462683 Ry
     estimated scf accuracy    <       0.00022185 Ry

     iteration # 19     ecut=    35.00 Ry     beta= 0.35
     Davidson diagonalization with overlap
     ethr =  6.51E-07,  avg # of iterations =  1.0

     negative rho (up, down):  2.957E-03 0.000E+00

     total cpu time spent up to now is       97.2 secs

     total energy              =    -186.40463386 Ry
     estimated scf accuracy    <       0.00000200 Ry

     iteration # 20     ecut=    35.00 Ry     beta= 0.35
     Davidson diagonalization with overlap
     ethr =  8.34E-09,  avg # of iterations =  6.8

     negative rho (up, down):  2.963E-03 0.000E+00

     total cpu time spent up to now is      107.2 secs

     total energy              =    -186.40463927 Ry
     estimated scf accuracy    <       0.00002196 Ry

     iteration # 21     ecut=    35.00 Ry     beta= 0.35
     Davidson diagonalization with overlap
     ethr =  8.34E-09,  avg # of iterations =  1.0

     negative rho (up, down):  2.969E-03 0.000E+00

     total cpu time spent up to now is      110.8 secs

     total energy              =    -186.40463851 Ry
     estimated scf accuracy    <       0.00001881 Ry

     iteration # 22     ecut=    35.00 Ry     beta= 0.35
     Davidson diagonalization with overlap
     ethr =  8.34E-09,  avg # of iterations =  1.0

     negative rho (up, down):  2.971E-03 0.000E+00

     total cpu time spent up to now is      115.0 secs

     total energy              =    -186.40463814 Ry
     estimated scf accuracy    <       0.00000450 Ry

     iteration # 23     ecut=    35.00 Ry     beta= 0.35
     Davidson diagonalization with overlap
     ethr =  8.34E-09,  avg # of iterations =  4.2

     negative rho (up, down):  2.971E-03 0.000E+00

     total cpu time spent up to now is      120.8 secs

     total energy              =    -186.40463854 Ry
     estimated scf accuracy    <       0.00000128 Ry

     iteration # 24     ecut=    35.00 Ry     beta= 0.35
     Davidson diagonalization with overlap
     ethr =  5.32E-09,  avg # of iterations =  1.0

     negative rho (up, down):  2.971E-03 0.000E+00

     total cpu time spent up to now is      124.2 secs

     total energy              =    -186.40463861 Ry
     estimated scf accuracy    <       0.00000012 Ry

     iteration # 25     ecut=    35.00 Ry     beta= 0.35
     Davidson diagonalization with overlap
     ethr =  5.07E-10,  avg # of iterations =  4.2

     negative rho (up, down):  2.973E-03 0.000E+00

     total cpu time spent up to now is      131.6 secs

     total energy              =    -186.40463862 Ry
     estimated scf accuracy    <       0.00000022 Ry

     iteration # 26     ecut=    35.00 Ry     beta= 0.35
     Davidson diagonalization with overlap
     ethr =  5.07E-10,  avg # of iterations =  1.0

     negative rho (up, down):  2.974E-03 0.000E+00

     total cpu time spent up to now is      135.2 secs

     End of self-consistent calculation

          k = 0.0000 0.0000 0.0000 (  5711 PWs)   bands (ev):

   -71.2485 -44.9430 -44.9430 -44.9022 -18.8645 -17.6908  -9.2203  -7.9644
    -7.9644  -6.8021  -6.8021  -5.8691  -5.5051  -4.9424  -4.9424  -4.4934

          k = 0.0000 0.2887 0.0000 (  5764 PWs)   bands (ev):

   -71.2483 -44.9575 -44.9456 -44.9065 -18.6486 -17.6171  -8.9990  -8.8712
    -7.9992  -7.1431  -6.9336  -5.9857  -5.8369  -5.1023  -5.0997  -4.8602

          k = 0.0000-0.5774 0.0000 (  5756 PWs)   bands (ev):

   -71.2481 -44.9632 -44.9476 -44.9008 -18.4132 -17.5375  -9.8518  -8.5367
    -8.1072  -7.4210  -6.8575  -6.1983  -5.8684  -5.5405  -5.4731  -4.6004

          k = 0.2500 0.4330 0.0000 (  5803 PWs)   bands (ev):

   -71.2481 -44.9636 -44.9572 -44.9036 -18.4161 -17.5376  -9.4799  -8.6409
    -8.5269  -7.3510  -6.9084  -6.2327  -6.0883  -5.6293  -5.1703  -4.7137

     the Fermi energy is    -6.0162 ev

!    total energy              =    -186.40463861 Ry
     estimated scf accuracy    <       0.00000002 Ry
     smearing contrib. (-TS)   =      -0.00280114 Ry
     internal energy E=F+TS    =    -186.40183747 Ry

     The total energy is F=E-TS. E is the sum of the following terms:
     one-electron contribution =   -1008.26159684 Ry
     hartree contribution      =     500.03211303 Ry
     xc contribution           =     -31.58385270 Ry
     ewald contribution        =     353.41149904 Ry

     convergence has been achieved in  26 iterations

     negative rho (up, down):  2.974E-03 0.000E+00

     Forces acting on atoms (cartesian axes, Ry/au):

     atom    1 type  3   force =     0.00000000   -0.00000000   -0.08693560
     atom    2 type  2   force =     0.00000000   -0.00000000   -0.05648412
     atom    3 type  1   force =     0.00000000   -0.00000000    0.14341972

     Total force =     0.176967     Total SCF correction =     0.000194


     Computing stress (Cartesian axis) and pressure


     negative rho (up, down):  2.974E-03 0.000E+00
          total   stress  (Ry/bohr**3)                   (kbar)     P=     -102.99
  -0.00074171   0.00000000   0.00000000         -109.11        0.00        0.00
   0.00000000  -0.00074171   0.00000000            0.00     -109.11        0.00
   0.00000000   0.00000000  -0.00061695            0.00        0.00      -90.76


     BFGS Geometry Optimization
     Energy error            =      3.1E-02 Ry
     Gradient error          =      1.4E-01 Ry/Bohr

     number of scf cycles    =   1
     number of bfgs steps    =   0

     energy             new  =    -186.4046386100 Ry

     new trust radius        =       0.1434197213 bohr
     new conv_thr            =       0.0000001000 Ry


ATOMIC_POSITIONS (angstrom)
V                0.0000000000       -0.0000000000       -0.0460043365
Se               1.9814012600        1.1439625500        1.4216262784
N                1.9814012600        1.1439625500       -1.3756219419



     Writing config-only to output data dir ./tmp/candidate_05_VNSe.save/ :
     XML data file
     NEW-OLD atomic charge density approx. for the potential

     Check: negative core charge=   -0.000005

     negative rho (up, down):  1.450E-03 0.000E+00

     total cpu time spent up to now is      142.1 secs

     per-process dynamical memory:   136.1 Mb

     Self-consistent Calculation

     iteration #  1     ecut=    35.00 Ry     beta= 0.35
     Davidson diagonalization with overlap
     ethr =  1.00E-06,  avg # of iterations = 12.8

     negative rho (up, down):  1.858E-03 0.000E+00

     total cpu time spent up to now is      157.2 secs

     total energy              =    -186.43627563 Ry
     estimated scf accuracy    <       0.00293648 Ry

     iteration #  2     ecut=    35.00 Ry     beta= 0.35
     Davidson diagonalization with overlap
     ethr =  1.22E-05,  avg # of iterations =  2.0

     negative rho (up, down):  2.557E-03 0.000E+00

     total cpu time spent up to now is      161.7 secs

     total energy              =    -186.43579884 Ry
     estimated scf accuracy    <       0.00467063 Ry

     iteration #  3     ecut=    35.00 Ry     beta= 0.35
     Davidson diagonalization with overlap
     ethr =  1.22E-05,  avg # of iterations =  2.0

     negative rho (up, down):  3.066E-03 0.000E+00

     total cpu time spent up to now is      165.9 secs

     total energy              =    -186.43555609 Ry
     estimated scf accuracy    <       0.02163395 Ry

     iteration #  4     ecut=    35.00 Ry     beta= 0.35
     Davidson diagonalization with overlap
     ethr =  1.22E-05,  avg # of iterations =  2.0

     negative rho (up, down):  2.748E-03 0.000E+00

     total cpu time spent up to now is      170.3 secs

     total energy              =    -186.43620970 Ry
     estimated scf accuracy    <       0.00632272 Ry

     iteration #  5     ecut=    35.00 Ry     beta= 0.35
     Davidson diagonalization with overlap
     ethr =  1.22E-05,  avg # of iterations =  1.2

     negative rho (up, down):  2.909E-03 0.000E+00

     total cpu time spent up to now is      173.7 secs

     total energy              =    -186.43665299 Ry
     estimated scf accuracy    <       0.00016653 Ry

     iteration #  6     ecut=    35.00 Ry     beta= 0.35
     Davidson diagonalization with overlap
     ethr =  6.94E-07,  avg # of iterations =  5.5

     negative rho (up, down):  2.989E-03 0.000E+00

     total cpu time spent up to now is      181.7 secs

     total energy              =    -186.43667584 Ry
     estimated scf accuracy    <       0.00015700 Ry

     iteration #  7     ecut=    35.00 Ry     beta= 0.35
     Davidson diagonalization with overlap
     ethr =  6.54E-07,  avg # of iterations =  1.8

     negative rho (up, down):  3.110E-03 0.000E+00

     total cpu time spent up to now is      185.5 secs

     total energy              =    -186.43669048 Ry
     estimated scf accuracy    <       0.00001057 Ry

     iteration #  8     ecut=    35.00 Ry     beta= 0.35
     Davidson diagonalization with overlap
     ethr =  4.40E-08,  avg # of iterations =  5.5

     negative rho (up, down):  3.285E-03 0.000E+00

     total cpu time spent up to now is      192.4 secs

     total energy              =    -186.43671316 Ry
     estimated scf accuracy    <       0.00000686 Ry

     iteration #  9     ecut=    35.00 Ry     beta= 0.35
     Davidson diagonalization with overlap
     ethr =  2.86E-08,  avg # of iterations =  4.8

     negative rho (up, down):  3.706E-03 0.000E+00

     total cpu time spent up to now is      198.5 secs

     total energy              =    -186.43672706 Ry
     estimated scf accuracy    <       0.00000813 Ry

     iteration # 10     ecut=    35.00 Ry     beta= 0.35
     Davidson diagonalization with overlap
     ethr =  2.86E-08,  avg # of iterations =  5.8

     negative rho (up, down):  4.111E-03 0.000E+00

     total cpu time spent up to now is      205.4 secs

     total energy              =    -186.43678901 Ry
     estimated scf accuracy    <       0.00005242 Ry

     iteration # 11     ecut=    35.00 Ry     beta= 0.35
     Davidson diagonalization with overlap
     ethr =  2.86E-08,  avg # of iterations =  6.2

     negative rho (up, down):  4.958E-03 0.000E+00

     total cpu time spent up to now is      213.3 secs

     total energy              =    -186.43688066 Ry
     estimated scf accuracy    <       0.00008461 Ry

     iteration # 12     ecut=    35.00 Ry     beta= 0.35
     Davidson diagonalization with overlap
     ethr =  2.86E-08,  avg # of iterations =  6.8

     negative rho (up, down):  6.796E-03 0.000E+00

     total cpu time spent up to now is      221.3 secs

     total energy              =    -186.43697084 Ry
     estimated scf accuracy    <       0.00021559 Ry

     iteration # 13     ecut=    35.00 Ry     beta= 0.35
     Davidson diagonalization with overlap
     ethr =  2.86E-08,  avg # of iterations =  7.2

     negative rho (up, down):  1.071E-02 0.000E+00

     total cpu time spent up to now is      229.4 secs

     total energy              =    -186.43685452 Ry
     estimated scf accuracy    <       0.00063500 Ry

     iteration # 14     ecut=    35.00 Ry     beta= 0.35
     Davidson diagonalization with overlap
     ethr =  2.86E-08,  avg # of iterations =  7.5

     negative rho (up, down):  1.480E-02 0.000E+00

     total cpu time spent up to now is      238.0 secs

     total energy              =    -186.43680280 Ry
     estimated scf accuracy    <       0.00156707 Ry

     iteration # 15     ecut=    35.00 Ry     beta= 0.35
     Davidson diagonalization with overlap
     ethr =  2.86E-08,  avg # of iterations =  7.5

     negative rho (up, down):  1.858E-02 0.000E+00

     total cpu time spent up to now is      247.1 secs

     total energy              =    -186.43715789 Ry
     estimated scf accuracy    <       0.00305269 Ry

     iteration # 16     ecut=    35.00 Ry     beta= 0.35
     Davidson diagonalization with overlap
     ethr =  2.86E-08,  avg # of iterations =  7.5

     negative rho (up, down):  2.619E-02 0.000E+00

     total cpu time spent up to now is      255.6 secs

     total energy              =    -186.43705054 Ry
     estimated scf accuracy    <       0.00573538 Ry

     iteration # 17     ecut=    35.00 Ry     beta= 0.35
     Davidson diagonalization with overlap
     ethr =  2.86E-08,  avg # of iterations =  8.0

     negative rho (up, down):  3.586E-02 0.000E+00

     total cpu time spent up to now is      264.3 secs

     total energy              =    -186.43705020 Ry
     estimated scf accuracy    <       0.01132136 Ry

     iteration # 18     ecut=    35.00 Ry     beta= 0.35
     Davidson diagonalization with overlap
     ethr =  2.86E-08,  avg # of iterations =  9.0

     negative rho (up, down):  5.069E-02 0.000E+00

     total cpu time spent up to now is      274.2 secs

     total energy              =    -186.43670963 Ry
     estimated scf accuracy    <       0.02193983 Ry

     iteration # 19     ecut=    35.00 Ry     beta= 0.35
     Davidson diagonalization with overlap
     ethr =  2.86E-08,  avg # of iterations =  8.5

     negative rho (up, down):  7.198E-02 0.000E+00

     total cpu time spent up to now is      284.5 secs

     total energy              =    -186.43594480 Ry
     estimated scf accuracy    <       0.04183174 Ry

     iteration # 20     ecut=    35.00 Ry     beta= 0.35
     Davidson diagonalization with overlap
     ethr =  2.86E-08,  avg # of iterations =  8.2

     negative rho (up, down):  9.863E-02 0.000E+00

     total cpu time spent up to now is      293.2 secs

     total energy              =    -186.43543416 Ry
     estimated scf accuracy    <       0.07318666 Ry

     iteration # 21     ecut=    35.00 Ry     beta= 0.35
     Davidson diagonalization with overlap
     ethr =  2.86E-08,  avg # of iterations =  8.5

     negative rho (up, down):  1.352E-01 0.000E+00

     total cpu time spent up to now is      302.7 secs

     total energy              =    -186.43323764 Ry
     estimated scf accuracy    <       0.11242422 Ry

     iteration # 22     ecut=    35.00 Ry     beta= 0.35
     Davidson diagonalization with overlap
     ethr =  2.86E-08,  avg # of iterations =  7.2

     negative rho (up, down):  1.708E-01 0.000E+00

     total cpu time spent up to now is      311.2 secs

     total energy              =    -186.43207070 Ry
     estimated scf accuracy    <       0.15024371 Ry

     iteration # 23     ecut=    35.00 Ry     beta= 0.35
     Davidson diagonalization with overlap
     ethr =  2.86E-08,  avg # of iterations =  7.5

     negative rho (up, down):  1.991E-01 0.000E+00

     total cpu time spent up to now is      320.3 secs

     total energy              =    -186.43390697 Ry
     estimated scf accuracy    <       0.18029046 Ry

     iteration # 24     ecut=    35.00 Ry     beta= 0.35
     Davidson diagonalization with overlap
     ethr =  2.86E-08,  avg # of iterations =  8.5

     negative rho (up, down):  2.439E-01 0.000E+00

     total cpu time spent up to now is      331.0 secs

     total energy              =    -186.43028526 Ry
     estimated scf accuracy    <       0.21148618 Ry

     iteration # 25     ecut=    35.00 Ry     beta= 0.35
     Davidson diagonalization with overlap
     ethr =  2.86E-08,  avg # of iterations =  8.5

     negative rho (up, down):  2.878E-01 0.000E+00

     total cpu time spent up to now is      340.8 secs

     total energy              =    -186.42457424 Ry
     estimated scf accuracy    <       0.24735504 Ry

     iteration # 26     ecut=    35.00 Ry     beta= 0.35
     Davidson diagonalization with overlap
     ethr =  2.86E-08,  avg # of iterations =  9.0

     negative rho (up, down):  3.002E-01 0.000E+00

     total cpu time spent up to now is      351.8 secs

     total energy              =    -186.42804421 Ry
     estimated scf accuracy    <       0.28367670 Ry

     iteration # 27     ecut=    35.00 Ry     beta= 0.35
     Davidson diagonalization with overlap
     ethr =  2.86E-08,  avg # of iterations =  8.8

     negative rho (up, down):  3.262E-01 0.000E+00

     total cpu time spent up to now is      361.7 secs

     total energy              =    -186.42714992 Ry
     estimated scf accuracy    <       0.28608377 Ry

     iteration # 28     ecut=    35.00 Ry     beta= 0.35
     Davidson diagonalization with overlap
     ethr =  2.86E-08,  avg # of iterations =  7.0

     negative rho (up, down):  3.557E-01 0.000E+00

     total cpu time spent up to now is      370.2 secs

     total energy              =    -186.42457558 Ry
     estimated scf accuracy    <       0.29460655 Ry

     iteration # 29     ecut=    35.00 Ry     beta= 0.35
     Davidson diagonalization with overlap
     ethr =  2.86E-08,  avg # of iterations =  6.8

     negative rho (up, down):  2.972E-01 0.000E+00

     total cpu time spent up to now is      379.2 secs

     total energy              =    -186.44727412 Ry
     estimated scf accuracy    <       0.31301641 Ry

     iteration # 30     ecut=    35.00 Ry     beta= 0.35
     Davidson diagonalization with overlap
     ethr =  2.86E-08,  avg # of iterations = 13.2

     negative rho (up, down):  4.092E-01 0.000E+00

     total cpu time spent up to now is      393.4 secs

     total energy              =    -186.42423647 Ry
     estimated scf accuracy    <       0.20531570 Ry

     iteration # 31     ecut=    35.00 Ry     beta= 0.35
     Davidson diagonalization with overlap
     ethr =  2.86E-08,  avg # of iterations = 14.0

     negative rho (up, down):  3.897E-01 0.000E+00

     total cpu time spent up to now is      408.1 secs

     total energy              =    -186.43352798 Ry
     estimated scf accuracy    <       0.30366374 Ry

     iteration # 32     ecut=    35.00 Ry     beta= 0.35
     Davidson diagonalization with overlap
     ethr =  2.86E-08,  avg # of iterations =  9.0

     negative rho (up, down):  2.992E-01 0.000E+00

     total cpu time spent up to now is      419.2 secs

     total energy              =    -186.47486456 Ry
     estimated scf accuracy    <       0.25298359 Ry

     iteration # 33     ecut=    35.00 Ry     beta= 0.35
     Davidson diagonalization with overlap
     ethr =  2.86E-08,  avg # of iterations = 10.2

     negative rho (up, down):  3.157E-01 0.000E+00

     total cpu time spent up to now is      430.9 secs

     total energy              =    -186.48240535 Ry
     estimated scf accuracy    <       0.16242518 Ry

     iteration # 34     ecut=    35.00 Ry     beta= 0.35
     Davidson diagonalization with overlap
     ethr =  2.86E-08,  avg # of iterations = 14.0

     negative rho (up, down):  3.127E-01 0.000E+00

     total cpu time spent up to now is      446.1 secs

     total energy              =    -186.50427896 Ry
     estimated scf accuracy    <       0.03141863 Ry

     iteration # 35     ecut=    35.00 Ry     beta= 0.35
     Davidson diagonalization with overlap
     ethr =  2.86E-08,  avg # of iterations = 10.2

     negative rho (up, down):  3.482E-01 0.000E+00

     total cpu time spent up to now is      457.7 secs

     total energy              =    -186.50653828 Ry
     estimated scf accuracy    <       0.01967441 Ry

     iteration # 36     ecut=    35.00 Ry     beta= 0.35
     Davidson diagonalization with overlap
     ethr =  2.86E-08,  avg # of iterations =  7.8

     negative rho (up, down):  3.695E-01 0.000E+00

     total cpu time spent up to now is      467.2 secs

     total energy              =    -186.50902200 Ry
     estimated scf accuracy    <       0.02027417 Ry

     iteration # 37     ecut=    35.00 Ry     beta= 0.35
     Davidson diagonalization with overlap
     ethr =  2.86E-08,  avg # of iterations = 11.8

     negative rho (up, down):  3.908E-01 0.000E+00

     total cpu time spent up to now is      481.1 secs

     total energy              =    -186.50824574 Ry
     estimated scf accuracy    <       0.00888481 Ry

     iteration # 38     ecut=    35.00 Ry     beta= 0.35
     Davidson diagonalization with overlap
     ethr =  2.86E-08,  avg # of iterations = 11.5

     negative rho (up, down):  4.232E-01 0.000E+00

     total cpu time spent up to now is      493.0 secs

     total energy              =    -186.50835271 Ry
     estimated scf accuracy    <       0.00337310 Ry

     iteration # 39     ecut=    35.00 Ry     beta= 0.35
     Davidson diagonalization with overlap
     ethr =  2.86E-08,  avg # of iterations =  9.0

     negative rho (up, down):  4.307E-01 0.000E+00

     total cpu time spent up to now is      503.6 secs

     total energy              =    -186.51356147 Ry
     estimated scf accuracy    <       0.00121271 Ry

     iteration # 40     ecut=    35.00 Ry     beta= 0.35
     Davidson diagonalization with overlap
     ethr =  2.86E-08,  avg # of iterations =  7.5

     negative rho (up, down):  4.519E-01 0.000E+00

     total cpu time spent up to now is      513.8 secs

     total energy              =    -186.51478664 Ry
     estimated scf accuracy    <       0.00030568 Ry

     iteration # 41     ecut=    35.00 Ry     beta= 0.35
     Davidson diagonalization with overlap
     ethr =  2.86E-08,  avg # of iterations =  8.0

     negative rho (up, down):  4.687E-01 0.000E+00

     total cpu time spent up to now is      522.7 secs

     total energy              =    -186.51574151 Ry
     estimated scf accuracy    <       0.00010434 Ry

     iteration # 42     ecut=    35.00 Ry     beta= 0.35
     Davidson diagonalization with overlap
     ethr =  2.86E-08,  avg # of iterations =  6.5

     negative rho (up, down):  4.833E-01 0.000E+00

     total cpu time spent up to now is      530.2 secs

     total energy              =    -186.51636846 Ry
     estimated scf accuracy    <       0.00006318 Ry

     iteration # 43     ecut=    35.00 Ry     beta= 0.35
     Davidson diagonalization with overlap
     ethr =  2.86E-08,  avg # of iterations =  6.0

     negative rho (up, down):  4.957E-01 0.000E+00

     total cpu time spent up to now is      537.6 secs

     total energy              =    -186.51676348 Ry
     estimated scf accuracy    <       0.00008759 Ry

     iteration # 44     ecut=    35.00 Ry     beta= 0.35
     Davidson diagonalization with overlap
     ethr =  2.86E-08,  avg # of iterations =  6.0

     negative rho (up, down):  5.060E-01 0.000E+00

     total cpu time spent up to now is      545.9 secs

     total energy              =    -186.51695863 Ry
     estimated scf accuracy    <       0.00008659 Ry

     iteration # 45     ecut=    35.00 Ry     beta= 0.35
     Davidson diagonalization with overlap
     ethr =  2.86E-08,  avg # of iterations =  6.0

     negative rho (up, down):  5.153E-01 0.000E+00

     total cpu time spent up to now is      553.3 secs

     total energy              =    -186.51648843 Ry
     estimated scf accuracy    <       0.00012529 Ry

     iteration # 46     ecut=    35.00 Ry     beta= 0.35
     Davidson diagonalization with overlap
     ethr =  2.86E-08,  avg # of iterations =  9.0

     negative rho (up, down):  5.217E-01 0.000E+00

     total cpu time spent up to now is      562.9 secs

     total energy              =    -186.51691303 Ry
     estimated scf accuracy    <       0.00002336 Ry

     iteration # 47     ecut=    35.00 Ry     beta= 0.35
     Davidson diagonalization with overlap
     ethr =  2.86E-08,  avg # of iterations =  4.8
     Minimization algorithm failed to find Fermi energy: reverting to bisection
     Possible cause: smearing is larger than the electronic band-gap.

     negative rho (up, down):  5.272E-01 0.000E+00

     total cpu time spent up to now is      569.4 secs

     total energy              =    -186.51698323 Ry
     estimated scf accuracy    <       0.00000200 Ry

     iteration # 48     ecut=    35.00 Ry     beta= 0.35
     Davidson diagonalization with overlap
     ethr =  8.34E-09,  avg # of iterations =  6.0

     negative rho (up, down):  5.318E-01 0.000E+00

     total cpu time spent up to now is      577.4 secs

     total energy              =    -186.51696938 Ry
     estimated scf accuracy    <       0.00000745 Ry

     iteration # 49     ecut=    35.00 Ry     beta= 0.35
     Davidson diagonalization with overlap
     ethr =  8.34E-09,  avg # of iterations =  5.0

     negative rho (up, down):  5.354E-01 0.000E+00

     total cpu time spent up to now is      584.9 secs

     total energy              =    -186.51696145 Ry
     estimated scf accuracy    <       0.00000163 Ry

     iteration # 50     ecut=    35.00 Ry     beta= 0.35
     Davidson diagonalization with overlap
     ethr =  6.78E-09,  avg # of iterations =  5.0

     negative rho (up, down):  5.384E-01 0.000E+00

     total cpu time spent up to now is      591.0 secs

     total energy              =    -186.51694647 Ry
     estimated scf accuracy    <       0.00000082 Ry

     iteration # 51     ecut=    35.00 Ry     beta= 0.35
     Davidson diagonalization with overlap
     ethr =  3.40E-09,  avg # of iterations =  5.0

     negative rho (up, down):  5.408E-01 0.000E+00

     total cpu time spent up to now is      597.8 secs

     total energy              =    -186.51693322 Ry
     estimated scf accuracy    <       0.00000065 Ry

     iteration # 52     ecut=    35.00 Ry     beta= 0.35
     Davidson diagonalization with overlap
     ethr =  2.72E-09,  avg # of iterations =  4.8

     negative rho (up, down):  5.427E-01 0.000E+00

     total cpu time spent up to now is      604.5 secs

     total energy              =    -186.51691831 Ry
     estimated scf accuracy    <       0.00000119 Ry

     iteration # 53     ecut=    35.00 Ry     beta= 0.35
     Davidson diagonalization with overlap
     ethr =  2.72E-09,  avg # of iterations =  5.0

     negative rho (up, down):  5.441E-01 0.000E+00

     total cpu time spent up to now is      611.6 secs

     total energy              =    -186.51690423 Ry
     estimated scf accuracy    <       0.00000217 Ry

     iteration # 54     ecut=    35.00 Ry     beta= 0.35
     Davidson diagonalization with overlap
     ethr =  2.72E-09,  avg # of iterations =  4.8

     negative rho (up, down):  5.453E-01 0.000E+00

     total cpu time spent up to now is      617.6 secs

     total energy              =    -186.51688407 Ry
     estimated scf accuracy    <       0.00000223 Ry

     iteration # 55     ecut=    35.00 Ry     beta= 0.35
     Davidson diagonalization with overlap
     ethr =  2.72E-09,  avg # of iterations =  4.2

     negative rho (up, down):  5.459E-01 0.000E+00

     total cpu time spent up to now is      623.6 secs

     total energy              =    -186.51688270 Ry
     estimated scf accuracy    <       0.00001076 Ry

     iteration # 56     ecut=    35.00 Ry     beta= 0.35
     Davidson diagonalization with overlap
     ethr =  2.72E-09,  avg # of iterations =  5.8

     negative rho (up, down):  5.467E-01 0.000E+00

     total cpu time spent up to now is      631.7 secs

     total energy              =    -186.51687446 Ry
     estimated scf accuracy    <       0.00000081 Ry

     iteration # 57     ecut=    35.00 Ry     beta= 0.35
     Davidson diagonalization with overlap
     ethr =  2.72E-09,  avg # of iterations =  2.8

     negative rho (up, down):  5.473E-01 0.000E+00

     total cpu time spent up to now is      636.6 secs

     total energy              =    -186.51686705 Ry
     estimated scf accuracy    <       0.00000120 Ry

     iteration # 58     ecut=    35.00 Ry     beta= 0.35
     Davidson diagonalization with overlap
     ethr =  2.72E-09,  avg # of iterations =  3.0

     negative rho (up, down):  5.478E-01 0.000E+00

     total cpu time spent up to now is      641.1 secs

     total energy              =    -186.51685964 Ry
     estimated scf accuracy    <       0.00000115 Ry

     iteration # 59     ecut=    35.00 Ry     beta= 0.35
     Davidson diagonalization with overlap
     ethr =  2.72E-09,  avg # of iterations =  2.2

     negative rho (up, down):  5.481E-01 0.000E+00

     total cpu time spent up to now is      646.2 secs

     total energy              =    -186.51685724 Ry
     estimated scf accuracy    <       0.00000203 Ry

     iteration # 60     ecut=    35.00 Ry     beta= 0.35
     Davidson diagonalization with overlap
     ethr =  2.72E-09,  avg # of iterations =  4.2

     negative rho (up, down):  5.485E-01 0.000E+00

     total cpu time spent up to now is      652.1 secs

     total energy              =    -186.51685281 Ry
     estimated scf accuracy    <       0.00000050 Ry

     iteration # 61     ecut=    35.00 Ry     beta= 0.35
     Davidson diagonalization with overlap
     ethr =  2.07E-09,  avg # of iterations =  2.2

     negative rho (up, down):  5.488E-01 0.000E+00

     total cpu time spent up to now is      655.7 secs

     total energy              =    -186.51684907 Ry
     estimated scf accuracy    <       0.00000032 Ry

     iteration # 62     ecut=    35.00 Ry     beta= 0.35
     Davidson diagonalization with overlap
     ethr =  1.32E-09,  avg # of iterations =  3.2

     negative rho (up, down):  5.490E-01 0.000E+00

     total cpu time spent up to now is      660.6 secs

     total energy              =    -186.51684606 Ry
     estimated scf accuracy    <       0.00000023 Ry

     iteration # 63     ecut=    35.00 Ry     beta= 0.35
     Davidson diagonalization with overlap
     ethr =  9.58E-10,  avg # of iterations =  3.2

     negative rho (up, down):  5.492E-01 0.000E+00

     total cpu time spent up to now is      665.2 secs

     total energy              =    -186.51684350 Ry
     estimated scf accuracy    <       0.00000011 Ry

     iteration # 64     ecut=    35.00 Ry     beta= 0.35
     Davidson diagonalization with overlap
     ethr =  4.62E-10,  avg # of iterations =  4.0

     negative rho (up, down):  5.497E-01 0.000E+00

     total cpu time spent up to now is      670.8 secs

     End of self-consistent calculation

          k = 0.0000 0.0000 0.0000 (  5711 PWs)   bands (ev):

   -70.1973 -44.6233 -44.6233 -42.7898 -19.3229 -18.1317  -9.6694  -8.1596
    -8.1596  -7.8862  -6.7780  -6.7780  -6.4427  -4.7144  -4.7144  -4.1211

          k = 0.0000 0.2887 0.0000 (  5764 PWs)   bands (ev):

   -70.1972 -44.6374 -44.6261 -42.7940 -19.1157 -18.0481  -9.5185  -9.3653
    -8.0954  -7.6180  -7.3640  -7.0458  -6.3216  -5.2241  -5.0770  -4.3703

          k = 0.0000-0.5774 0.0000 (  5756 PWs)   bands (ev):

   -70.1970 -44.6432 -44.6278 -42.7882 -18.8936 -17.9539 -10.3828  -9.0935
    -8.1026  -7.9173  -7.4345  -7.1276  -6.3163  -5.6066  -5.4307  -4.0496

          k = 0.2500 0.4330 0.0000 (  5803 PWs)   bands (ev):

   -70.1971 -44.6435 -44.6371 -42.7906 -18.8964 -17.9543 -10.0286  -9.0900
    -8.9240  -7.7177  -7.3682  -7.0470  -6.3310  -5.8902  -5.1705  -4.1920

     the Fermi energy is    -6.5839 ev

!    total energy              =    -186.51683661 Ry
     estimated scf accuracy    <       0.00000004 Ry
     smearing contrib. (-TS)   =       0.00294146 Ry
     internal energy E=F+TS    =    -186.51977808 Ry

     The total energy is F=E-TS. E is the sum of the following terms:
     one-electron contribution =   -1016.50769694 Ry
     hartree contribution      =     504.61614558 Ry
     xc contribution           =     -32.28834323 Ry
     ewald contribution        =     357.66011651 Ry

     convergence has been achieved in  64 iterations

     negative rho (up, down):  5.497E-01 0.000E+00

     Forces acting on atoms (cartesian axes, Ry/au):

     atom    1 type  3   force =     0.00000000    0.00000000   -0.09533490
     atom    2 type  2   force =     0.00000000   -0.00000000   -0.07901661
     atom    3 type  1   force =     0.00000000    0.00000000    0.17435152

     Total force =     0.213848     Total SCF correction =     0.000355


     Computing stress (Cartesian axis) and pressure


     negative rho (up, down):  5.497E-01 0.000E+00
          total   stress  (Ry/bohr**3)                   (kbar)     P=      -61.39
  -0.00025583   0.00000000   0.00000000          -37.63        0.00        0.00
   0.00000000  -0.00025583  -0.00000000            0.00      -37.63       -0.00
   0.00000000  -0.00000000  -0.00074020            0.00       -0.00     -108.89

     Energy error            =      1.1E-01 Ry
     Gradient error          =      1.7E-01 Ry/Bohr

     number of scf cycles    =   2
     number of bfgs steps    =   1

     energy             old  =    -186.4046386100 Ry
     energy             new  =    -186.5168366136 Ry

     CASE: energy            _new < energy            _old


     WARNING: bfgs curvature condition failed, Theta= 0.664
     uphill step: resetting bfgs history

     new trust radius        =       0.1577616934 bohr
     new conv_thr            =       0.0000001000 Ry


ATOMIC_POSITIONS (angstrom)
V                0.0000000000       -0.0000000000       -0.0916530861
Se               1.9814012600        1.1439625500        1.3837911350
N                1.9814012600        1.1439625500       -1.2921380490



     Writing config-only to output data dir ./tmp/candidate_05_VNSe.save/ :
     XML data file
     NEW-OLD atomic charge density approx. for the potential

     Check: negative core charge=   -0.000005

     negative rho (up, down):  5.454E-01 0.000E+00

     total cpu time spent up to now is      677.8 secs

     per-process dynamical memory:   136.1 Mb

     Self-consistent Calculation

     iteration #  1     ecut=    35.00 Ry     beta= 0.35
     Davidson diagonalization with overlap
     ethr =  1.00E-06,  avg # of iterations = 11.2

     negative rho (up, down):  3.398E-01 0.000E+00

     total cpu time spent up to now is      691.0 secs

     total energy              =    -186.09650327 Ry
     estimated scf accuracy    <       0.72250882 Ry

     iteration #  2     ecut=    35.00 Ry     beta= 0.35
     Davidson diagonalization with overlap
     ethr =  3.01E-03,  avg # of iterations =  5.0

     negative rho (up, down):  3.240E-01 0.000E+00

     total cpu time spent up to now is      698.0 secs

     total energy              =    -185.73720304 Ry
     estimated scf accuracy    <      17.52273820 Ry

     iteration #  3     ecut=    35.00 Ry     beta= 0.35
     Davidson diagonalization with overlap
     ethr =  3.01E-03,  avg # of iterations =  3.8

     negative rho (up, down):  3.266E-01 0.000E+00

     total cpu time spent up to now is      703.2 secs

     total energy              =    -186.50235509 Ry
     estimated scf accuracy    <       0.14549941 Ry

     iteration #  4     ecut=    35.00 Ry     beta= 0.35
     Davidson diagonalization with overlap
     ethr =  6.06E-04,  avg # of iterations =  3.5

     negative rho (up, down):  3.503E-01 0.000E+00

     total cpu time spent up to now is      708.3 secs

     total energy              =    -186.52858438 Ry
     estimated scf accuracy    <       0.04476203 Ry

     iteration #  5     ecut=    35.00 Ry     beta= 0.35
     Davidson diagonalization with overlap
     ethr =  1.87E-04,  avg # of iterations =  4.8

     negative rho (up, down):  3.819E-01 0.000E+00

     total cpu time spent up to now is      715.1 secs

     total energy              =    -186.54015792 Ry
     estimated scf accuracy    <       0.03488435 Ry

     iteration #  6     ecut=    35.00 Ry     beta= 0.35
     Davidson diagonalization with overlap
     ethr =  1.45E-04,  avg # of iterations =  1.2

     negative rho (up, down):  3.996E-01 0.000E+00

     total cpu time spent up to now is      718.8 secs

     total energy              =    -186.54706928 Ry
     estimated scf accuracy    <       0.00949018 Ry

     iteration #  7     ecut=    35.00 Ry     beta= 0.35
     Davidson diagonalization with overlap
     ethr =  3.95E-05,  avg # of iterations =  3.5

     negative rho (up, down):  4.201E-01 0.000E+00

     total cpu time spent up to now is      723.7 secs

     total energy              =    -186.54951413 Ry
     estimated scf accuracy    <       0.00272451 Ry

     iteration #  8     ecut=    35.00 Ry     beta= 0.35
     Davidson diagonalization with overlap
     ethr =  1.14E-05,  avg # of iterations =  5.0

     negative rho (up, down):  4.343E-01 0.000E+00

     total cpu time spent up to now is      730.1 secs

     WARNING: integrated charge=    23.99738159, expected=    24.00000000

     total energy              =    -186.54730654 Ry
     estimated scf accuracy    <       0.00065041 Ry

     iteration #  9     ecut=    35.00 Ry     beta= 0.35
     Davidson diagonalization with overlap
     ethr =  2.71E-06,  avg # of iterations =  3.8

     negative rho (up, down):  4.502E-01 0.000E+00

     total cpu time spent up to now is      735.3 secs

     WARNING: integrated charge=    23.99723063, expected=    24.00000000

     total energy              =    -186.55170158 Ry
     estimated scf accuracy    <       0.00011341 Ry

     iteration # 10     ecut=    35.00 Ry     beta= 0.35
     Davidson diagonalization with overlap
     ethr =  4.73E-07,  avg # of iterations =  5.0

     negative rho (up, down):  4.646E-01 0.000E+00

     total cpu time spent up to now is      741.4 secs

     WARNING: integrated charge=    23.99782440, expected=    24.00000000

     total energy              =    -186.55204159 Ry
     estimated scf accuracy    <       0.00033267 Ry

     iteration # 11     ecut=    35.00 Ry     beta= 0.35
     Davidson diagonalization with overlap
     ethr =  4.73E-07,  avg # of iterations =  5.0

     negative rho (up, down):  4.754E-01 0.000E+00

     total cpu time spent up to now is      749.0 secs

     WARNING: integrated charge=    23.99893781, expected=    24.00000000

     total energy              =    -186.55227931 Ry
     estimated scf accuracy    <       0.00016488 Ry

     iteration # 12     ecut=    35.00 Ry     beta= 0.35
     Davidson diagonalization with overlap
     ethr =  4.73E-07,  avg # of iterations =  5.0

     negative rho (up, down):  4.842E-01 0.000E+00

     total cpu time spent up to now is      755.2 secs

     WARNING: integrated charge=    24.00008778, expected=    24.00000000

     total energy              =    -186.55231089 Ry
     estimated scf accuracy    <       0.00004440 Ry

     iteration # 13     ecut=    35.00 Ry     beta= 0.35
     Davidson diagonalization with overlap
     ethr =  1.85E-07,  avg # of iterations =  5.5

     negative rho (up, down):  4.912E-01 0.000E+00

     total cpu time spent up to now is      761.6 secs

     WARNING: integrated charge=    24.00038348, expected=    24.00000000

     total energy              =    -186.55243900 Ry
     estimated scf accuracy    <       0.00002323 Ry

     iteration # 14     ecut=    35.00 Ry     beta= 0.35
     Davidson diagonalization with overlap
     ethr =  9.68E-08,  avg # of iterations =  5.0

     negative rho (up, down):  4.970E-01 0.000E+00

     total cpu time spent up to now is      767.7 secs

     WARNING: integrated charge=    24.00029490, expected=    24.00000000

     total energy              =    -186.55253761 Ry
     estimated scf accuracy    <       0.00000670 Ry

     iteration # 15     ecut=    35.00 Ry     beta= 0.35
     Davidson diagonalization with overlap
     ethr =  2.79E-08,  avg # of iterations =  5.0

     negative rho (up, down):  5.019E-01 0.000E+00

     total cpu time spent up to now is      774.0 secs

     WARNING: integrated charge=    23.99953911, expected=    24.00000000

     total energy              =    -186.55255385 Ry
     estimated scf accuracy    <       0.00001018 Ry

     iteration # 16     ecut=    35.00 Ry     beta= 0.35
     Davidson diagonalization with overlap
     ethr =  2.79E-08,  avg # of iterations =  6.0

     negative rho (up, down):  5.059E-01 0.000E+00

     total cpu time spent up to now is      782.0 secs

     WARNING: integrated charge=    23.99953050, expected=    24.00000000

     total energy              =    -186.55251107 Ry
     estimated scf accuracy    <       0.00007953 Ry

     iteration # 17     ecut=    35.00 Ry     beta= 0.35
     Davidson diagonalization with overlap
     ethr =  2.79E-08,  avg # of iterations =  4.8

     negative rho (up, down):  5.091E-01 0.000E+00

     total cpu time spent up to now is      788.2 secs

     WARNING: integrated charge=    23.99976461, expected=    24.00000000

     total energy              =    -186.55250048 Ry
     estimated scf accuracy    <       0.00010761 Ry

     iteration # 18     ecut=    35.00 Ry     beta= 0.35
     Davidson diagonalization with overlap
     ethr =  2.79E-08,  avg # of iterations =  5.0

     negative rho (up, down):  5.117E-01 0.000E+00

     total cpu time spent up to now is      794.2 secs

     WARNING: integrated charge=    23.99991961, expected=    24.00000000

     total energy              =    -186.55248430 Ry
     estimated scf accuracy    <       0.00009056 Ry

     iteration # 19     ecut=    35.00 Ry     beta= 0.35
     Davidson diagonalization with overlap
     ethr =  2.79E-08,  avg # of iterations =  4.0

     negative rho (up, down):  5.138E-01 0.000E+00

     total cpu time spent up to now is      799.7 secs

     WARNING: integrated charge=    24.00005676, expected=    24.00000000

     total energy              =    -186.55249508 Ry
     estimated scf accuracy    <       0.00007104 Ry

     iteration # 20     ecut=    35.00 Ry     beta= 0.35
     Davidson diagonalization with overlap
     ethr =  2.79E-08,  avg # of iterations =  5.0

     negative rho (up, down):  5.159E-01 0.000E+00

     total cpu time spent up to now is      806.2 secs

     WARNING: integrated charge=    24.00017610, expected=    24.00000000

     total energy              =    -186.55248661 Ry
     estimated scf accuracy    <       0.00003371 Ry

     iteration # 21     ecut=    35.00 Ry     beta= 0.35
     Davidson diagonalization with overlap
     ethr =  2.79E-08,  avg # of iterations =  5.2

     negative rho (up, down):  5.178E-01 0.000E+00

     total cpu time spent up to now is      813.8 secs

     WARNING: integrated charge=    24.00013760, expected=    24.00000000

     total energy              =    -186.55245694 Ry
     estimated scf accuracy    <       0.00000013 Ry

     iteration # 22     ecut=    35.00 Ry     beta= 0.35
     Davidson diagonalization with overlap
     ethr =  5.37E-10,  avg # of iterations =  9.0

     negative rho (up, down):  5.192E-01 0.000E+00

     total cpu time spent up to now is      823.2 secs

     WARNING: integrated charge=    24.00010954, expected=    24.00000000

     total energy              =    -186.55246971 Ry
     estimated scf accuracy    <       0.00000328 Ry

     iteration # 23     ecut=    35.00 Ry     beta= 0.35
     Davidson diagonalization with overlap
     ethr =  5.37E-10,  avg # of iterations =  7.0

     negative rho (up, down):  5.205E-01 0.000E+00

     total cpu time spent up to now is      831.4 secs

     WARNING: integrated charge=    24.00004729, expected=    24.00000000

     total energy              =    -186.55245687 Ry
     estimated scf accuracy    <       0.00000029 Ry

     iteration # 24     ecut=    35.00 Ry     beta= 0.35
     Davidson diagonalization with overlap
     ethr =  5.37E-10,  avg # of iterations =  6.8

     negative rho (up, down):  5.233E-01 0.000E+00

     total cpu time spent up to now is      839.3 secs

     End of self-consistent calculation

          k = 0.0000 0.0000 0.0000 (  5711 PWs)   bands (ev):

   -70.2800 -44.6026 -44.6026 -42.9080 -19.3925 -18.0351  -9.6083  -8.2152
    -8.2152  -7.5091  -6.7909  -6.7909  -6.1211  -4.5570  -4.5570  -4.0892

          k = 0.0000 0.2887 0.0000 (  5764 PWs)   bands (ev):

   -70.2798 -44.6168 -44.6054 -42.9122 -19.1962 -17.9439  -9.4535  -9.3013
    -8.1023  -7.4349  -7.2632  -7.1050  -6.0171  -5.1103  -4.9770  -4.3201

          k = 0.0000-0.5774 0.0000 (  5756 PWs)   bands (ev):

   -70.2796 -44.6227 -44.6072 -42.9064 -18.9884 -17.8397 -10.2698  -9.0860
    -8.0473  -7.8523  -7.2399  -7.1969  -6.0180  -5.5564  -5.3786  -3.9778

          k = 0.2500 0.4330 0.0000 (  5803 PWs)   bands (ev):

   -70.2797 -44.6230 -44.6165 -42.9088 -18.9910 -17.8401  -9.9098  -9.0761
    -8.8236  -7.7739  -7.2788  -6.9272  -6.0467  -5.8314  -5.1234  -4.1370

     the Fermi energy is    -6.5187 ev

!    total energy              =    -186.55242831 Ry
     estimated scf accuracy    <       0.00000002 Ry
     smearing contrib. (-TS)   =       0.00259299 Ry
     internal energy E=F+TS    =    -186.55502129 Ry

     The total energy is F=E-TS. E is the sum of the following terms:
     one-electron contribution =   -1026.22658915 Ry
     hartree contribution      =     509.43827476 Ry
     xc contribution           =     -32.21600260 Ry
     ewald contribution        =     362.44929570 Ry

     convergence has been achieved in  24 iterations

     negative rho (up, down):  5.233E-01 0.000E+00

     Forces acting on atoms (cartesian axes, Ry/au):

     atom    1 type  3   force =     0.00000000   -0.00000000   -0.11056378
     atom    2 type  2   force =     0.00000000    0.00000000   -0.07083154
     atom    3 type  1   force =     0.00000000    0.00000000    0.18139533

     Total force =     0.223932     Total SCF correction =     0.000272


     Computing stress (Cartesian axis) and pressure


     negative rho (up, down):  5.233E-01 0.000E+00
          total   stress  (Ry/bohr**3)                   (kbar)     P=      -62.96
  -0.00029819   0.00000000   0.00000000          -43.87        0.00        0.00
   0.00000000  -0.00029819   0.00000000            0.00      -43.87        0.00
   0.00000000   0.00000000  -0.00068760            0.00        0.00     -101.15

     Energy error            =      3.6E-02 Ry
     Gradient error          =      1.8E-01 Ry/Bohr

     number of scf cycles    =   3
     number of bfgs steps    =   2

     energy             old  =    -186.5168366136 Ry
     energy             new  =    -186.5524283073 Ry

     CASE: energy            _new < energy            _old


     WARNING: bfgs curvature condition failed, Theta= 0.763
     new trust radius        =       0.2366425401 bohr
     new conv_thr            =       0.0000001000 Ry


ATOMIC_POSITIONS (angstrom)
V                0.0000000000        0.0000000000       -0.1411963404
Se               1.9814012600        1.1439625500        1.3081085500
N                1.9814012600        1.1439625500       -1.1669122096



     Writing config-only to output data dir ./tmp/candidate_05_VNSe.save/ :
     XML data file
     NEW-OLD atomic charge density approx. for the potential

     Check: negative core charge=   -0.000005

     negative rho (up, down):  5.245E-01 0.000E+00

     total cpu time spent up to now is      846.2 secs

     per-process dynamical memory:   136.1 Mb

     Self-consistent Calculation

     iteration #  1     ecut=    35.00 Ry     beta= 0.35
     Davidson diagonalization with overlap
     ethr =  1.00E-06,  avg # of iterations = 12.2

     negative rho (up, down):  3.263E-01 0.000E+00

     total cpu time spent up to now is      860.4 secs

     total energy              =    -186.34718764 Ry
     estimated scf accuracy    <       0.35259685 Ry

     iteration #  2     ecut=    35.00 Ry     beta= 0.35
     Davidson diagonalization with overlap
     ethr =  1.47E-03,  avg # of iterations =  5.5

     negative rho (up, down):  2.821E-01 0.000E+00

     total cpu time spent up to now is      866.8 secs

     total energy              =    -186.19739723 Ry
     estimated scf accuracy    <       5.45455594 Ry

     iteration #  3     ecut=    35.00 Ry     beta= 0.35
     Davidson diagonalization with overlap
     ethr =  1.47E-03,  avg # of iterations =  4.0
     Minimization algorithm failed to find Fermi energy: reverting to bisection
     Possible cause: smearing is larger than the electronic band-gap.

     negative rho (up, down):  2.711E-01 0.000E+00

     total cpu time spent up to now is      872.2 secs

     total energy              =    -186.55017226 Ry
     estimated scf accuracy    <       0.04464998 Ry

     iteration #  4     ecut=    35.00 Ry     beta= 0.35
     Davidson diagonalization with overlap
     ethr =  1.86E-04,  avg # of iterations =  7.2

     negative rho (up, down):  3.020E-01 0.000E+00

     total cpu time spent up to now is      881.1 secs

     total energy              =    -186.57598507 Ry
     estimated scf accuracy    <       0.08585374 Ry

     iteration #  5     ecut=    35.00 Ry     beta= 0.35
     Davidson diagonalization with overlap
     ethr =  1.86E-04,  avg # of iterations =  2.0

     negative rho (up, down):  3.112E-01 0.000E+00

     total cpu time spent up to now is      885.1 secs

     total energy              =    -186.59742487 Ry
     estimated scf accuracy    <       0.01433942 Ry

     iteration #  6     ecut=    35.00 Ry     beta= 0.35
     Davidson diagonalization with overlap
     ethr =  5.97E-05,  avg # of iterations =  4.2

     negative rho (up, down):  3.399E-01 0.000E+00

     total cpu time spent up to now is      890.5 secs

     total energy              =    -186.60448261 Ry
     estimated scf accuracy    <       0.00652436 Ry

     iteration #  7     ecut=    35.00 Ry     beta= 0.35
     Davidson diagonalization with overlap
     ethr =  2.72E-05,  avg # of iterations =  4.8

     negative rho (up, down):  3.647E-01 0.000E+00

     total cpu time spent up to now is      896.3 secs

     total energy              =    -186.60848614 Ry
     estimated scf accuracy    <       0.00092230 Ry

     iteration #  8     ecut=    35.00 Ry     beta= 0.35
     Davidson diagonalization with overlap
     ethr =  3.84E-06,  avg # of iterations =  5.8

     negative rho (up, down):  3.888E-01 0.000E+00

     total cpu time spent up to now is      903.1 secs

     total energy              =    -186.61132289 Ry
     estimated scf accuracy    <       0.00039669 Ry

     iteration #  9     ecut=    35.00 Ry     beta= 0.35
     Davidson diagonalization with overlap
     ethr =  1.65E-06,  avg # of iterations =  5.0

     negative rho (up, down):  4.121E-01 0.000E+00

     total cpu time spent up to now is      910.3 secs

     total energy              =    -186.61262317 Ry
     estimated scf accuracy    <       0.00042401 Ry

     iteration # 10     ecut=    35.00 Ry     beta= 0.35
     Davidson diagonalization with overlap
     ethr =  1.65E-06,  avg # of iterations =  5.0

     negative rho (up, down):  4.338E-01 0.000E+00

     total cpu time spent up to now is      916.3 secs

     total energy              =    -186.61355964 Ry
     estimated scf accuracy    <       0.00030429 Ry

     iteration # 11     ecut=    35.00 Ry     beta= 0.35
     Davidson diagonalization with overlap
     ethr =  1.27E-06,  avg # of iterations =  5.0

     negative rho (up, down):  4.504E-01 0.000E+00

     total cpu time spent up to now is      922.5 secs

     total energy              =    -186.61466376 Ry
     estimated scf accuracy    <       0.00010406 Ry

     iteration # 12     ecut=    35.00 Ry     beta= 0.35
     Davidson diagonalization with overlap
     ethr =  4.34E-07,  avg # of iterations =  5.0

     negative rho (up, down):  4.659E-01 0.000E+00

     total cpu time spent up to now is      929.0 secs

     total energy              =    -186.61505002 Ry
     estimated scf accuracy    <       0.00027336 Ry

     iteration # 13     ecut=    35.00 Ry     beta= 0.35
     Davidson diagonalization with overlap
     ethr =  4.34E-07,  avg # of iterations =  5.0

     negative rho (up, down):  4.788E-01 0.000E+00

     total cpu time spent up to now is      935.2 secs

     total energy              =    -186.61529199 Ry
     estimated scf accuracy    <       0.00032526 Ry

     iteration # 14     ecut=    35.00 Ry     beta= 0.35
     Davidson diagonalization with overlap
     ethr =  4.34E-07,  avg # of iterations =  4.8

     negative rho (up, down):  4.897E-01 0.000E+00

     total cpu time spent up to now is      942.1 secs

     total energy              =    -186.61530624 Ry
     estimated scf accuracy    <       0.00017934 Ry

     iteration # 15     ecut=    35.00 Ry     beta= 0.35
     Davidson diagonalization with overlap
     ethr =  4.34E-07,  avg # of iterations =  3.0

     negative rho (up, down):  4.988E-01 0.000E+00

     total cpu time spent up to now is      946.7 secs

     total energy              =    -186.61521808 Ry
     estimated scf accuracy    <       0.00030460 Ry

     iteration # 16     ecut=    35.00 Ry     beta= 0.35
     Davidson diagonalization with overlap
     ethr =  4.34E-07,  avg # of iterations =  4.0

     negative rho (up, down):  5.064E-01 0.000E+00

     total cpu time spent up to now is      952.2 secs

     total energy              =    -186.61508450 Ry
     estimated scf accuracy    <       0.00037520 Ry

     iteration # 17     ecut=    35.00 Ry     beta= 0.35
     Davidson diagonalization with overlap
     ethr =  4.34E-07,  avg # of iterations =  2.5

     negative rho (up, down):  5.121E-01 0.000E+00

     total cpu time spent up to now is      956.4 secs

     total energy              =    -186.61504554 Ry
     estimated scf accuracy    <       0.00043762 Ry

     iteration # 18     ecut=    35.00 Ry     beta= 0.35
     Davidson diagonalization with overlap
     ethr =  4.34E-07,  avg # of iterations =  3.0

     negative rho (up, down):  5.170E-01 0.000E+00

     total cpu time spent up to now is      960.8 secs

     total energy              =    -186.61493994 Ry
     estimated scf accuracy    <       0.00043590 Ry

     iteration # 19     ecut=    35.00 Ry     beta= 0.35
     Davidson diagonalization with overlap
     ethr =  4.34E-07,  avg # of iterations =  2.0

     negative rho (up, down):  5.205E-01 0.000E+00

     total cpu time spent up to now is      964.6 secs

     total energy              =    -186.61496081 Ry
     estimated scf accuracy    <       0.00046573 Ry

     iteration # 20     ecut=    35.00 Ry     beta= 0.35
     Davidson diagonalization with overlap
     ethr =  4.34E-07,  avg # of iterations =  2.0

     negative rho (up, down):  5.226E-01 0.000E+00

     total cpu time spent up to now is      968.7 secs

     total energy              =    -186.61534973 Ry
     estimated scf accuracy    <       0.00043181 Ry

     iteration # 21     ecut=    35.00 Ry     beta= 0.35
     Davidson diagonalization with overlap
     ethr =  4.34E-07,  avg # of iterations =  3.8

     negative rho (up, down):  5.254E-01 0.000E+00

     total cpu time spent up to now is      974.6 secs

     total energy              =    -186.61543966 Ry
     estimated scf accuracy    <       0.00022003 Ry

     iteration # 22     ecut=    35.00 Ry     beta= 0.35
     Davidson diagonalization with overlap
     ethr =  4.34E-07,  avg # of iterations =  3.5

     negative rho (up, down):  5.277E-01 0.000E+00

     total cpu time spent up to now is      979.8 secs

     total energy              =    -186.61548664 Ry
     estimated scf accuracy    <       0.00012056 Ry

     iteration # 23     ecut=    35.00 Ry     beta= 0.35
     Davidson diagonalization with overlap
     ethr =  4.34E-07,  avg # of iterations =  2.5

     negative rho (up, down):  5.298E-01 0.000E+00

     total cpu time spent up to now is      983.9 secs

     total energy              =    -186.61550095 Ry
     estimated scf accuracy    <       0.00006809 Ry

     iteration # 24     ecut=    35.00 Ry     beta= 0.35
     Davidson diagonalization with overlap
     ethr =  2.84E-07,  avg # of iterations =  3.5

     negative rho (up, down):  5.320E-01 0.000E+00

     total cpu time spent up to now is      989.0 secs

     total energy              =    -186.61549426 Ry
     estimated scf accuracy    <       0.00002594 Ry

     iteration # 25     ecut=    35.00 Ry     beta= 0.35
     Davidson diagonalization with overlap
     ethr =  1.08E-07,  avg # of iterations =  3.2

     negative rho (up, down):  5.340E-01 0.000E+00

     total cpu time spent up to now is      993.8 secs

     total energy              =    -186.61547808 Ry
     estimated scf accuracy    <       0.00000950 Ry

     iteration # 26     ecut=    35.00 Ry     beta= 0.35
     Davidson diagonalization with overlap
     ethr =  3.96E-08,  avg # of iterations =  4.5

     negative rho (up, down):  5.358E-01 0.000E+00

     total cpu time spent up to now is      999.6 secs

     total energy              =    -186.61545778 Ry
     estimated scf accuracy    <       0.00000185 Ry

     iteration # 27     ecut=    35.00 Ry     beta= 0.35
     Davidson diagonalization with overlap
     ethr =  7.71E-09,  avg # of iterations =  5.0

     negative rho (up, down):  5.375E-01 0.000E+00

     total cpu time spent up to now is     1005.9 secs

     total energy              =    -186.61544712 Ry
     estimated scf accuracy    <       0.00000020 Ry

     iteration # 28     ecut=    35.00 Ry     beta= 0.35
     Davidson diagonalization with overlap
     ethr =  8.19E-10,  avg # of iterations =  5.8

     negative rho (up, down):  5.388E-01 0.000E+00

     total cpu time spent up to now is     1013.6 secs

     total energy              =    -186.61543087 Ry
     estimated scf accuracy    <       0.00000055 Ry

     iteration # 29     ecut=    35.00 Ry     beta= 0.35
     Davidson diagonalization with overlap
     ethr =  8.19E-10,  avg # of iterations =  6.0

     negative rho (up, down):  5.399E-01 0.000E+00

     total cpu time spent up to now is     1020.8 secs

     total energy              =    -186.61542134 Ry
     estimated scf accuracy    <       0.00000013 Ry

     iteration # 30     ecut=    35.00 Ry     beta= 0.35
     Davidson diagonalization with overlap
     ethr =  5.42E-10,  avg # of iterations =  4.8

     negative rho (up, down):  5.408E-01 0.000E+00

     total cpu time spent up to now is     1027.0 secs

     total energy              =    -186.61541229 Ry
     estimated scf accuracy    <       0.00000021 Ry

     iteration # 31     ecut=    35.00 Ry     beta= 0.35
     Davidson diagonalization with overlap
     ethr =  5.42E-10,  avg # of iterations =  5.0

     negative rho (up, down):  5.415E-01 0.000E+00

     total cpu time spent up to now is     1035.4 secs

     total energy              =    -186.61540421 Ry
     estimated scf accuracy    <       0.00000034 Ry

     iteration # 32     ecut=    35.00 Ry     beta= 0.35
     Davidson diagonalization with overlap
     ethr =  5.42E-10,  avg # of iterations =  4.0

     negative rho (up, down):  5.420E-01 0.000E+00

     total cpu time spent up to now is     1041.8 secs

     total energy              =    -186.61539732 Ry
     estimated scf accuracy    <       0.00000151 Ry

     iteration # 33     ecut=    35.00 Ry     beta= 0.35
     Davidson diagonalization with overlap
     ethr =  5.42E-10,  avg # of iterations =  4.2

     negative rho (up, down):  5.424E-01 0.000E+00

     total cpu time spent up to now is     1047.7 secs

     total energy              =    -186.61539182 Ry
     estimated scf accuracy    <       0.00000195 Ry

     iteration # 34     ecut=    35.00 Ry     beta= 0.35
     Davidson diagonalization with overlap
     ethr =  5.42E-10,  avg # of iterations =  3.2

     negative rho (up, down):  5.428E-01 0.000E+00

     total cpu time spent up to now is     1052.5 secs

     total energy              =    -186.61538633 Ry
     estimated scf accuracy    <       0.00000219 Ry

     iteration # 35     ecut=    35.00 Ry     beta= 0.35
     Davidson diagonalization with overlap
     ethr =  5.42E-10,  avg # of iterations =  3.5

     negative rho (up, down):  5.430E-01 0.000E+00

     total cpu time spent up to now is     1057.6 secs

     total energy              =    -186.61538195 Ry
     estimated scf accuracy    <       0.00000314 Ry

     iteration # 36     ecut=    35.00 Ry     beta= 0.35
     Davidson diagonalization with overlap
     ethr =  5.42E-10,  avg # of iterations =  4.2

     negative rho (up, down):  5.432E-01 0.000E+00

     total cpu time spent up to now is     1063.3 secs

     total energy              =    -186.61538049 Ry
     estimated scf accuracy    <       0.00000433 Ry

     iteration # 37     ecut=    35.00 Ry     beta= 0.35
     Davidson diagonalization with overlap
     ethr =  5.42E-10,  avg # of iterations =  4.0

     negative rho (up, down):  5.434E-01 0.000E+00

     total cpu time spent up to now is     1068.9 secs

     total energy              =    -186.61537425 Ry
     estimated scf accuracy    <       0.00000350 Ry

     iteration # 38     ecut=    35.00 Ry     beta= 0.35
     Davidson diagonalization with overlap
     ethr =  5.42E-10,  avg # of iterations =  3.5

     negative rho (up, down):  5.435E-01 0.000E+00

     total cpu time spent up to now is     1074.6 secs

     total energy              =    -186.61537369 Ry
     estimated scf accuracy    <       0.00000615 Ry

     iteration # 39     ecut=    35.00 Ry     beta= 0.35
     Davidson diagonalization with overlap
     ethr =  5.42E-10,  avg # of iterations =  1.8

     negative rho (up, down):  5.436E-01 0.000E+00

     total cpu time spent up to now is     1078.3 secs

     total energy              =    -186.61537695 Ry
     estimated scf accuracy    <       0.00000561 Ry

     iteration # 40     ecut=    35.00 Ry     beta= 0.35
     Davidson diagonalization with overlap
     ethr =  5.42E-10,  avg # of iterations =  5.0

     negative rho (up, down):  5.437E-01 0.000E+00

     total cpu time spent up to now is     1085.0 secs

     total energy              =    -186.61537706 Ry
     estimated scf accuracy    <       0.00000224 Ry

     iteration # 41     ecut=    35.00 Ry     beta= 0.35
     Davidson diagonalization with overlap
     ethr =  5.42E-10,  avg # of iterations =  6.5

     negative rho (up, down):  5.438E-01 0.000E+00

     total cpu time spent up to now is     1092.8 secs

     total energy              =    -186.61537496 Ry
     estimated scf accuracy    <       0.00000039 Ry

     iteration # 42     ecut=    35.00 Ry     beta= 0.35
     Davidson diagonalization with overlap
     ethr =  5.42E-10,  avg # of iterations =  5.0

     negative rho (up, down):  5.444E-01 0.000E+00

     total cpu time spent up to now is     1099.6 secs

     End of self-consistent calculation

          k = 0.0000 0.0000 0.0000 (  5711 PWs)   bands (ev):

   -70.2464 -44.6692 -44.6692 -42.8061 -19.7901 -17.9152  -9.7021  -8.5821
    -8.5821  -7.7162  -6.8367  -6.8367  -5.7218  -4.4149  -4.4149  -4.0619

          k = 0.0000 0.2887 0.0000 (  5764 PWs)   bands (ev):

   -70.2462 -44.6837 -44.6721 -42.8104 -19.6051 -17.8149  -9.7269  -9.3937
    -8.4183  -7.6012  -7.4004  -7.1981  -5.5753  -5.0831  -4.9263  -4.3085

          k = 0.0000-0.5774 0.0000 (  5756 PWs)   bands (ev):

   -70.2460 -44.6899 -44.6739 -42.8045 -19.4106 -17.7008 -10.4625  -9.2398
    -8.2647  -7.9203  -7.4380  -7.4161  -5.6799  -5.5247  -5.4027  -3.9107

          k = 0.2500 0.4330 0.0000 (  5803 PWs)   bands (ev):

   -70.2461 -44.6901 -44.6833 -42.8069 -19.4131 -17.7012 -10.1168  -9.2131
    -9.0072  -7.9339  -7.4061  -7.1327  -5.9496  -5.5810  -5.1563  -4.0834

     the Fermi energy is    -6.4569 ev

!    total energy              =    -186.61536846 Ry
     estimated scf accuracy    <       0.00000004 Ry
     smearing contrib. (-TS)   =       0.00075967 Ry
     internal energy E=F+TS    =    -186.61612813 Ry

     The total energy is F=E-TS. E is the sum of the following terms:
     one-electron contribution =   -1041.98023279 Ry
     hartree contribution      =     517.30457830 Ry
     xc contribution           =     -32.33385734 Ry
     ewald contribution        =     370.39338370 Ry

     convergence has been achieved in  42 iterations

     negative rho (up, down):  5.444E-01 0.000E+00

     Forces acting on atoms (cartesian axes, Ry/au):

     atom    1 type  3   force =     0.00000000    0.00000000   -0.07773806
     atom    2 type  2   force =     0.00000000   -0.00000000   -0.06864057
     atom    3 type  1   force =     0.00000000   -0.00000000    0.14637863

     Total force =     0.179392     Total SCF correction =     0.000088


     Computing stress (Cartesian axis) and pressure


     negative rho (up, down):  5.444E-01 0.000E+00
          total   stress  (Ry/bohr**3)                   (kbar)     P=      -61.89
  -0.00031731   0.00000000   0.00000000          -46.68        0.00        0.00
   0.00000000  -0.00031731   0.00000000            0.00      -46.68        0.00
   0.00000000  -0.00000000  -0.00062756            0.00       -0.00      -92.32

     Energy error            =      6.3E-02 Ry
     Gradient error          =      1.5E-01 Ry/Bohr

     number of scf cycles    =   4
     number of bfgs steps    =   3

     energy             old  =    -186.5524283073 Ry
     energy             new  =    -186.6153684593 Ry

     CASE: energy            _new < energy            _old

     new trust radius        =       0.3549638102 bohr
     new conv_thr            =       0.0000001000 Ry


ATOMIC_POSITIONS (angstrom)
V                0.0000000000        0.0000000000       -0.2072177815
Se               1.9814012600        1.1439625500        1.1862912320
N                1.9814012600        1.1439625500       -0.9790734506



     Writing config-only to output data dir ./tmp/candidate_05_VNSe.save/ :
     XML data file
     NEW-OLD atomic charge density approx. for the potential

     Check: negative core charge=   -0.000005

     negative rho (up, down):  5.390E-01 0.000E+00

     total cpu time spent up to now is     1105.6 secs

     per-process dynamical memory:   136.1 Mb

     Self-consistent Calculation

     iteration #  1     ecut=    35.00 Ry     beta= 0.35
     Davidson diagonalization with overlap
     c_bands:  1 eigenvalues not converged
     ethr =  1.00E-06,  avg # of iterations = 16.0

     negative rho (up, down):  3.202E-01 0.000E+00

     total cpu time spent up to now is     1124.1 secs

     total energy              =    -186.37851819 Ry
     estimated scf accuracy    <       0.41416229 Ry

     iteration #  2     ecut=    35.00 Ry     beta= 0.35
     Davidson diagonalization with overlap
     ethr =  1.73E-03,  avg # of iterations =  5.5

     negative rho (up, down):  2.237E-01 0.000E+00

     total cpu time spent up to now is     1130.8 secs

     total energy              =    -186.35418677 Ry
     estimated scf accuracy    <       1.57075015 Ry

     iteration #  3     ecut=    35.00 Ry     beta= 0.35
     Davidson diagonalization with overlap
     ethr =  1.73E-03,  avg # of iterations =  3.8

     negative rho (up, down):  1.460E-01 0.000E+00

     total cpu time spent up to now is     1135.9 secs

     total energy              =    -186.56782138 Ry
[...]
     XML data file
     NEW-OLD atomic charge density approx. for the potential

     Check: negative core charge=   -0.000005

     negative rho (up, down):  5.614E-01 0.000E+00

     total cpu time spent up to now is     6004.3 secs

     per-process dynamical memory:   136.1 Mb

     Self-consistent Calculation

     iteration #  1     ecut=    35.00 Ry     beta= 0.35
     Davidson diagonalization with overlap
     ethr =  1.00E-06,  avg # of iterations =  4.0

     negative rho (up, down):  5.617E-01 0.000E+00

     total cpu time spent up to now is     6010.0 secs

     total energy              =    -186.69280314 Ry
     estimated scf accuracy    <       0.00002500 Ry

     iteration #  2     ecut=    35.00 Ry     beta= 0.35
     Davidson diagonalization with overlap
     ethr =  1.04E-07,  avg # of iterations =  3.8

     negative rho (up, down):  5.618E-01 0.000E+00

     total cpu time spent up to now is     6016.3 secs

     total energy              =    -186.69293676 Ry
     estimated scf accuracy    <       0.00002736 Ry

     iteration #  3     ecut=    35.00 Ry     beta= 0.35
     Davidson diagonalization with overlap
     ethr =  1.04E-07,  avg # of iterations =  2.0

     negative rho (up, down):  5.620E-01 0.000E+00

     total cpu time spent up to now is     6020.1 secs

     total energy              =    -186.69300334 Ry
     estimated scf accuracy    <       0.00000652 Ry

     iteration #  4     ecut=    35.00 Ry     beta= 0.35
     Davidson diagonalization with overlap
     ethr =  2.72E-08,  avg # of iterations =  2.2

     negative rho (up, down):  5.621E-01 0.000E+00

     total cpu time spent up to now is     6024.4 secs

     total energy              =    -186.69303163 Ry
     estimated scf accuracy    <       0.00000244 Ry

     iteration #  5     ecut=    35.00 Ry     beta= 0.35
     Davidson diagonalization with overlap
     ethr =  1.02E-08,  avg # of iterations =  4.0

     negative rho (up, down):  5.622E-01 0.000E+00

     total cpu time spent up to now is     6029.7 secs

     total energy              =    -186.69304342 Ry
     estimated scf accuracy    <       0.00000251 Ry

     iteration #  6     ecut=    35.00 Ry     beta= 0.35
     Davidson diagonalization with overlap
     ethr =  1.02E-08,  avg # of iterations =  2.0

     negative rho (up, down):  5.621E-01 0.000E+00

     total cpu time spent up to now is     6033.5 secs

     total energy              =    -186.69305341 Ry
     estimated scf accuracy    <       0.00000035 Ry

     iteration #  7     ecut=    35.00 Ry     beta= 0.35
     Davidson diagonalization with overlap
     ethr =  1.48E-09,  avg # of iterations =  4.5

     negative rho (up, down):  5.620E-01 0.000E+00

     total cpu time spent up to now is     6039.1 secs

     total energy              =    -186.69306130 Ry
     estimated scf accuracy    <       0.00000008 Ry

     iteration #  8     ecut=    35.00 Ry     beta= 0.35
     Davidson diagonalization with overlap
     ethr =  3.32E-10,  avg # of iterations =  4.8

     negative rho (up, down):  5.619E-01 0.000E+00

     total cpu time spent up to now is     6044.8 secs

     total energy              =    -186.69306623 Ry
     estimated scf accuracy    <       0.00000003 Ry

     iteration #  9     ecut=    35.00 Ry     beta= 0.35
     Davidson diagonalization with overlap
     ethr =  1.43E-10,  avg # of iterations =  4.5

     negative rho (up, down):  5.618E-01 0.000E+00

     total cpu time spent up to now is     6051.7 secs

     total energy              =    -186.69306992 Ry
     estimated scf accuracy    <          7.3E-09 Ry

     iteration # 10     ecut=    35.00 Ry     beta= 0.35
     Davidson diagonalization with overlap
     ethr =  3.05E-11,  avg # of iterations =  4.8

     negative rho (up, down):  5.617E-01 0.000E+00

     total cpu time spent up to now is     6057.6 secs

     total energy              =    -186.69307242 Ry
     estimated scf accuracy    <          2.9E-09 Ry

     iteration # 11     ecut=    35.00 Ry     beta= 0.35
     Davidson diagonalization with overlap
     ethr =  1.22E-11,  avg # of iterations =  5.0

     negative rho (up, down):  5.616E-01 0.000E+00

     total cpu time spent up to now is     6063.6 secs

     End of self-consistent calculation

          k = 0.0000 0.0000 0.0000 (  5711 PWs)   bands (ev):

   -70.2631 -44.7329 -44.7329 -42.7216 -21.4665 -17.2415  -9.9230  -9.7203
    -9.7203  -7.4103  -6.6109  -6.6109  -4.7885  -4.2140  -4.2140  -4.0491

          k = 0.0000 0.2887 0.0000 (  5764 PWs)   bands (ev):

   -70.2629 -44.7486 -44.7361 -42.7259 -21.3196 -17.1194 -10.4985  -9.6600
    -9.5163  -7.6749  -7.0144  -6.9889  -5.1126  -4.8527  -4.3948  -4.0514

          k = 0.0000-0.5774 0.0000 (  5756 PWs)   bands (ev):

   -70.2626 -44.7559 -44.7380 -42.7199 -21.1676 -16.9826 -11.0287  -9.5516
    -9.2830  -7.9985  -7.2921  -7.1400  -5.9223  -5.4540  -4.3838  -3.2154

          k = 0.2500 0.4330 0.0000 (  5803 PWs)   bands (ev):

   -70.2627 -44.7558 -44.7477 -42.7223 -21.1693 -16.9832 -10.7152  -9.7703
    -9.5072  -7.9210  -7.6922  -6.6666  -6.1706  -5.3086  -4.5353  -3.4749

     the Fermi energy is    -6.4121 ev

!    total energy              =    -186.69307791 Ry
     estimated scf accuracy    <          1.6E-10 Ry
     smearing contrib. (-TS)   =       0.00180921 Ry
     internal energy E=F+TS    =    -186.69488712 Ry

     The total energy is F=E-TS. E is the sum of the following terms:
     one-electron contribution =   -1074.83356489 Ry
     hartree contribution      =     533.67076086 Ry
     xc contribution           =     -32.53429158 Ry
     ewald contribution        =     387.00220850 Ry

     convergence has been achieved in  11 iterations

     negative rho (up, down):  5.616E-01 0.000E+00

     Forces acting on atoms (cartesian axes, Ry/au):

     atom    1 type  3   force =     0.00000000   -0.00000000    0.00279414
     atom    2 type  2   force =     0.00000000    0.00000000   -0.00202640
     atom    3 type  1   force =     0.00000000    0.00000000   -0.00076773

     Total force =     0.003536     Total SCF correction =     0.000068


     Computing stress (Cartesian axis) and pressure


     negative rho (up, down):  5.616E-01 0.000E+00
          total   stress  (Ry/bohr**3)                   (kbar)     P=      -49.08
  -0.00033697  -0.00000000   0.00000000          -49.57       -0.00        0.00
  -0.00000000  -0.00033697  -0.00000000           -0.00      -49.57       -0.00
   0.00000000  -0.00000000  -0.00032706            0.00       -0.00      -48.11

     Energy error            =      1.1E-05 Ry
     Gradient error          =      2.8E-03 Ry/Bohr

     number of scf cycles    =  49
     number of bfgs steps    =   8

     energy             old  =    -186.6930884786 Ry
     energy             new  =    -186.6930779126 Ry

     CASE: energy            _new > energy            _old

     new trust radius        =       0.0000238090 bohr

     trust_radius < trust_radius_min

     resetting bfgs history

     new conv_thr            =       0.0000000010 Ry


ATOMIC_POSITIONS (angstrom)
V                0.0000000000        0.0000000000       -0.2488682718
Se               1.9814012600        1.1439625500        1.1346847396
N                1.9814012600        1.1439625500       -0.8858164679



     Writing config-only to output data dir ./tmp/candidate_05_VNSe.save/ :
     XML data file
     NEW-OLD atomic charge density approx. for the potential

     Check: negative core charge=   -0.000005

     negative rho (up, down):  5.616E-01 0.000E+00

     total cpu time spent up to now is     6069.7 secs

     per-process dynamical memory:   136.1 Mb

     Self-consistent Calculation

     iteration #  1     ecut=    35.00 Ry     beta= 0.35
     Davidson diagonalization with overlap
     ethr =  1.00E-06,  avg # of iterations =  4.0

     Threshold (ethr) on eigenvalues was too large:
     Diagonalizing with lowered threshold

     Davidson diagonalization with overlap
     ethr =  9.85E-08,  avg # of iterations =  3.8

     negative rho (up, down):  5.607E-01 0.000E+00

     total cpu time spent up to now is     6079.6 secs

     total energy              =    -186.69284971 Ry
     estimated scf accuracy    <       0.00002269 Ry

     iteration #  2     ecut=    35.00 Ry     beta= 0.35
     Davidson diagonalization with overlap
     ethr =  9.45E-08,  avg # of iterations =  3.0

     negative rho (up, down):  5.604E-01 0.000E+00

     total cpu time spent up to now is     6085.7 secs

     total energy              =    -186.69293995 Ry
     estimated scf accuracy    <       0.00002373 Ry

     iteration #  3     ecut=    35.00 Ry     beta= 0.35
     Davidson diagonalization with overlap
     ethr =  9.45E-08,  avg # of iterations =  2.0

     negative rho (up, down):  5.602E-01 0.000E+00

     total cpu time spent up to now is     6089.4 secs

     total energy              =    -186.69298502 Ry
     estimated scf accuracy    <       0.00000676 Ry

     iteration #  4     ecut=    35.00 Ry     beta= 0.35
     Davidson diagonalization with overlap
     ethr =  2.82E-08,  avg # of iterations =  2.5

     negative rho (up, down):  5.602E-01 0.000E+00

     total cpu time spent up to now is     6094.0 secs

     total energy              =    -186.69299893 Ry
     estimated scf accuracy    <       0.00000232 Ry

     iteration #  5     ecut=    35.00 Ry     beta= 0.35
     Davidson diagonalization with overlap
     ethr =  9.69E-09,  avg # of iterations =  4.5

     negative rho (up, down):  5.603E-01 0.000E+00

     total cpu time spent up to now is     6099.5 secs

     total energy              =    -186.69300035 Ry
     estimated scf accuracy    <       0.00000292 Ry

     iteration #  6     ecut=    35.00 Ry     beta= 0.35
     Davidson diagonalization with overlap
     ethr =  9.69E-09,  avg # of iterations =  2.2

     negative rho (up, down):  5.604E-01 0.000E+00

     total cpu time spent up to now is     6103.4 secs

     total energy              =    -186.69299867 Ry
     estimated scf accuracy    <       0.00000039 Ry

     iteration #  7     ecut=    35.00 Ry     beta= 0.35
     Davidson diagonalization with overlap
     ethr =  1.62E-09,  avg # of iterations =  5.0

     negative rho (up, down):  5.606E-01 0.000E+00

     total cpu time spent up to now is     6109.5 secs

     total energy              =    -186.69299580 Ry
     estimated scf accuracy    <       0.00000035 Ry

     iteration #  8     ecut=    35.00 Ry     beta= 0.35
     Davidson diagonalization with overlap
     ethr =  1.44E-09,  avg # of iterations =  2.2

     negative rho (up, down):  5.607E-01 0.000E+00

     total cpu time spent up to now is     6113.5 secs

     total energy              =    -186.69299288 Ry
     estimated scf accuracy    <       0.00000002 Ry

     iteration #  9     ecut=    35.00 Ry     beta= 0.35
     Davidson diagonalization with overlap
     ethr =  1.03E-10,  avg # of iterations =  6.5

     negative rho (up, down):  5.608E-01 0.000E+00

     total cpu time spent up to now is     6122.4 secs

     total energy              =    -186.69299035 Ry
     estimated scf accuracy    <       0.00000006 Ry

     iteration # 10     ecut=    35.00 Ry     beta= 0.35
     Davidson diagonalization with overlap
     ethr =  1.03E-10,  avg # of iterations =  4.5

     negative rho (up, down):  5.609E-01 0.000E+00

     total cpu time spent up to now is     6128.0 secs

     total energy              =    -186.69298804 Ry
     estimated scf accuracy    <       0.00000002 Ry

     iteration # 11     ecut=    35.00 Ry     beta= 0.35
     Davidson diagonalization with overlap
     ethr =  7.30E-11,  avg # of iterations =  4.5

     negative rho (up, down):  5.610E-01 0.000E+00

     total cpu time spent up to now is     6133.7 secs

     total energy              =    -186.69298614 Ry
     estimated scf accuracy    <          5.8E-09 Ry

     iteration # 12     ecut=    35.00 Ry     beta= 0.35
     Davidson diagonalization with overlap
     ethr =  2.44E-11,  avg # of iterations =  4.8

     negative rho (up, down):  5.611E-01 0.000E+00

     total cpu time spent up to now is     6139.5 secs

     total energy              =    -186.69298469 Ry
     estimated scf accuracy    <          8.6E-09 Ry

     iteration # 13     ecut=    35.00 Ry     beta= 0.35
     Davidson diagonalization with overlap
     ethr =  2.44E-11,  avg # of iterations =  5.0

     negative rho (up, down):  5.612E-01 0.000E+00

     total cpu time spent up to now is     6145.6 secs

     total energy              =    -186.69298327 Ry
     estimated scf accuracy    <          3.9E-09 Ry

     iteration # 14     ecut=    35.00 Ry     beta= 0.35
     Davidson diagonalization with overlap
     ethr =  1.63E-11,  avg # of iterations =  4.0

     negative rho (up, down):  5.612E-01 0.000E+00

     total cpu time spent up to now is     6152.3 secs

     total energy              =    -186.69298238 Ry
     estimated scf accuracy    <          5.9E-09 Ry

     iteration # 15     ecut=    35.00 Ry     beta= 0.35
     Davidson diagonalization with overlap
     ethr =  1.63E-11,  avg # of iterations =  4.2

     negative rho (up, down):  5.613E-01 0.000E+00

     total cpu time spent up to now is     6157.8 secs

     total energy              =    -186.69298162 Ry
     estimated scf accuracy    <          3.4E-09 Ry

     iteration # 16     ecut=    35.00 Ry     beta= 0.35
     Davidson diagonalization with overlap
     ethr =  1.40E-11,  avg # of iterations =  3.2

     negative rho (up, down):  5.613E-01 0.000E+00

     total cpu time spent up to now is     6162.6 secs

     total energy              =    -186.69298109 Ry
     estimated scf accuracy    <          3.0E-09 Ry

     iteration # 17     ecut=    35.00 Ry     beta= 0.35
     Davidson diagonalization with overlap
     ethr =  1.25E-11,  avg # of iterations =  4.8

     negative rho (up, down):  5.614E-01 0.000E+00

     total cpu time spent up to now is     6168.6 secs

     End of self-consistent calculation

          k = 0.0000 0.0000 0.0000 (  5711 PWs)   bands (ev):

   -70.2597 -44.7336 -44.7336 -42.7162 -21.4728 -17.2425  -9.9272  -9.7243
    -9.7243  -7.4161  -6.6144  -6.6144  -4.7930  -4.2140  -4.2140  -4.0526

          k = 0.0000 0.2887 0.0000 (  5764 PWs)   bands (ev):

   -70.2595 -44.7493 -44.7368 -42.7204 -21.3258 -17.1205 -10.5044  -9.6625
    -9.5206  -7.6781  -7.0178  -6.9949  -5.1147  -4.8545  -4.3959  -4.0531

          k = 0.0000-0.5774 0.0000 (  5756 PWs)   bands (ev):

   -70.2592 -44.7566 -44.7387 -42.7144 -21.1738 -16.9839 -11.0350  -9.5536
    -9.2877  -7.9996  -7.2953  -7.1484  -5.9240  -5.4561  -4.3853  -3.2111

          k = 0.2500 0.4330 0.0000 (  5803 PWs)   bands (ev):

   -70.2593 -44.7565 -44.7484 -42.7168 -21.1755 -16.9845 -10.7215  -9.7759
    -9.5089  -7.9229  -7.6953  -6.6734  -6.1731  -5.3097  -4.5371  -3.4719

     the Fermi energy is    -6.4164 ev

!    total energy              =    -186.69297941 Ry
     estimated scf accuracy    <          1.5E-10 Ry
     smearing contrib. (-TS)   =       0.00183275 Ry
     internal energy E=F+TS    =    -186.69481216 Ry

     The total energy is F=E-TS. E is the sum of the following terms:
     one-electron contribution =   -1074.96881497 Ry
     hartree contribution      =     533.73930532 Ry
     xc contribution           =     -32.53812211 Ry
     ewald contribution        =     387.07281961 Ry

     convergence has been achieved in  17 iterations

     negative rho (up, down):  5.614E-01 0.000E+00

     Forces acting on atoms (cartesian axes, Ry/au):

     atom    1 type  3   force =     0.00000000    0.00000000   -0.00306639
     atom    2 type  2   force =     0.00000000    0.00000000    0.00140874
     atom    3 type  1   force =     0.00000000    0.00000000    0.00165765

     Total force =     0.003760     Total SCF correction =     0.000022


     Computing stress (Cartesian axis) and pressure


     negative rho (up, down):  5.614E-01 0.000E+00
          total   stress  (Ry/bohr**3)                   (kbar)     P=      -49.01
  -0.00033588   0.00000000   0.00000000          -49.41        0.00        0.00
   0.00000000  -0.00033588  -0.00000000            0.00      -49.41       -0.00
   0.00000000  -0.00000000  -0.00032774            0.00       -0.00      -48.21

     Energy error            =      1.1E-04 Ry
     Gradient error          =      3.1E-03 Ry/Bohr

     number of scf cycles    =  50
     number of bfgs steps    =   8

     energy             old  =    -186.6930884786 Ry
     energy             new  =    -186.6929794088 Ry

     CASE: energy            _new > energy            _old

     new trust radius        =       0.0003174333 bohr

     The maximum number of steps has been reached.

     End of BFGS Geometry Optimization

ATOMIC_POSITIONS (angstrom)
V                0.0000000000        0.0000000000       -0.2506897329
Se               1.9814012600        1.1439625500        1.1359311834
N                1.9814012600        1.1439625500       -0.8852414505



     Writing config-only to output data dir ./tmp/candidate_05_VNSe.save/ :
     XML data file
     NEW-OLD atomic charge density approx. for the potential

     Check: negative core charge=   -0.000005

     negative rho (up, down):  5.614E-01 0.000E+00

     Writing all to output data dir ./tmp/candidate_05_VNSe.save/ :
     XML data file, charge density, pseudopotentials, collected wavefunctions

     init_run     :     25.37s CPU      3.08s WALL (       1 calls)
     electrons    :  83136.65s CPU   5852.69s WALL (      50 calls)
     update_pot   :     83.07s CPU      5.13s WALL (      50 calls)
     forces       :    351.23s CPU     46.00s WALL (      50 calls)
     stress       :   1112.45s CPU    241.40s WALL (      50 calls)

     Called by init_run:
     wfcinit      :     16.15s CPU      1.01s WALL (       1 calls)
     potinit      :      3.76s CPU      0.37s WALL (       1 calls)
     hinit0       :      4.34s CPU      1.07s WALL (       1 calls)

     Called by electrons:
     c_bands      :  70238.54s CPU   4414.69s WALL (     989 calls)
     sum_band     :  10916.37s CPU    909.52s WALL (     989 calls)
     v_of_rho     :    634.51s CPU     38.73s WALL (    1020 calls)
     newd         :   1216.92s CPU    501.36s WALL (    1020 calls)
     mix_rho      :    149.16s CPU     10.12s WALL (     989 calls)

     Called by c_bands:
     init_us_2    :    110.57s CPU     22.20s WALL (    8316 calls)
     cegterg      :  69813.67s CPU   4380.67s WALL (    3956 calls)

     Called by *egterg:
     cdiaghg      :    432.64s CPU     28.16s WALL (   20370 calls)
     h_psi        :  49023.19s CPU   3081.74s WALL (   20650 calls)
     s_psi        :   2639.30s CPU    166.89s WALL (   20650 calls)
     g_psi        :     16.90s CPU      4.66s WALL (   16690 calls)

     Called by h_psi:
     h_psi:calbec :   1375.89s CPU     72.71s WALL (   20650 calls)
     vloc_psi     :  40749.75s CPU   2603.30s WALL (   20650 calls)
                                        0.00s GPU  (   20650 calls)
     add_vuspsi   :   2989.25s CPU    171.02s WALL (   20650 calls)

     General routines
     calbec       :   1672.06s CPU     90.46s WALL (   28006 calls)
     fft          :    324.30s CPU     21.21s WALL (   14480 calls)
     ffts         :     85.04s CPU      4.63s WALL (    2009 calls)
     fftw         :  40643.46s CPU   2596.19s WALL (  411586 calls)
     interpolate  :     46.79s CPU      2.91s WALL (    1020 calls)
     davcio       :      0.04s CPU      0.00s WALL (       4 calls)

     Parallel routines

     PWSCF        :     23h33m CPU      1h42m WALL


   This run was terminated on:   4:33:40  11May2026            

=------------------------------------------------------------------------------=
   JOB DONE.
=------------------------------------------------------------------------------=
